# vtk DataFile Version 2.0
Really cool data
ASCII
DATASET POLYDATA
POINTS 10044 float
-0.58653945 83.91611 30.0178
-0.62970114 83.76897 30.542942
-0.6232904 83.925064 30.934769
-0.59762335 84.40635 30.021955
-0.65026045 84.49496 30.472467
-0.5938238 84.41034 31.03389
-0.5876634 84.883064 30.679955
0.36172503 82.16429 30.966394
0.33386257 82.28051 31.042389
0.24599375 83.12772 29.064161
-0.051606268 82.954765 29.786917
-0.14260757 82.85363 30.65395
0.06423119 82.722824 31.384272
0.2403193 82.88336 32.128963
0.06046471 83.5154 29.152655
-0.3636996 83.63632 29.677923
-0.46838546 83.40294 30.475443
-0.36352867 83.54756 31.319742
0.06883153 83.638214 32.14467
-0.05515635 84.28525 29.192232
-0.400027 84.39081 29.689669
-0.42910138 84.49255 31.351704
0.14045389 84.30427 32.181385
0.1378886 84.827415 29.270403
-0.18801859 85.000984 29.865755
-0.25706849 85.161606 30.595211
-0.233159 85.02494 31.115973
0.037406385 84.82883 31.726967
1.2401223 64.8116 24.032051
1.0607682 64.85309 24.652418
1.071554 64.78422 25.456732
1.276536 64.71578 26.282911
1.0333973 65.50521 23.870104
0.80871224 65.64437 24.531395
0.8043288 65.564735 25.411617
1.0612576 65.50713 26.16825
1.2862973 66.18296 23.38517
0.8187726 66.50975 24.581661
0.7615067 66.44877 25.339449
0.97351134 66.25328 26.02827
1.3883117 67.742584 20.796066
1.0341656 68.137856 21.41147
1.2840105 67.698364 22.175175
1.1041112 67.239685 24.671629
1.0917659 67.13853 25.382364
1.391185 68.18261 20.10765
0.96706164 68.77448 20.663845
0.84190774 68.78521 21.378473
1.0609319 68.63718 22.341816
1.3884392 68.43085 23.363659
1.2747462 69.78746 20.14197
0.9907384 69.4795 20.613087
0.8167508 69.39624 21.464212
1.0063667 69.46031 22.331732
1.357505 69.83214 22.89383
1.1380041 70.09691 20.746586
1.089519 70.22228 21.475548
1.3339425 70.26114 22.3219
1.4429055 70.96195 21.453562
1.4704573 75.652985 15.3958025
1.4836661 76.70472 14.813165
1.4721891 76.40838 15.545409
1.3675128 77.97022 13.457118
1.3717042 77.95889 14.188753
1.382802 78.47677 13.0010605
1.3125052 78.46334 13.444753
1.3247292 78.670944 14.31092
1.4304329 78.43669 15.045945
1.3517342 79.22023 13.075206
1.3560044 79.37964 13.3986435
1.3848245 79.18334 14.467787
1.4331622 79.93348 13.47522
1.2793243 81.26585 31.193113
0.9457184 81.864395 29.855246
1.0008311 81.483154 30.576845
0.65062636 81.95095 31.339716
1.0248007 81.89711 32.07767
0.6974478 82.79237 29.105743
0.8065231 82.30149 29.360104
0.42304856 82.346695 31.717922
0.6003983 82.70488 32.45748
0.88339454 82.91211 32.902596
0.631445 83.56622 28.779934
0.43573633 83.51755 32.632256
0.8215189 83.481 32.996555
0.60063356 84.27105 28.825768
0.4680808 84.32309 32.422176
0.83937633 84.107025 32.853134
0.5239259 84.72947 29.063892
0.46267325 85.13751 29.607817
0.3631058 85.42334 30.506922
0.40857315 85.28226 31.304312
0.5522754 84.912346 31.927698
0.61309695 85.510086 30.604145
2.185501 63.00766 25.795544
2.3178508 63.097 26.636177
1.9114975 64.282 23.676344
1.8253313 63.82197 24.626055
1.7958629 63.567886 25.649734
1.7984434 63.655144 26.281094
1.9176947 64.00757 27.045483
2.027067 64.56314 23.244967
1.5370071 64.51632 23.871086
1.5008488 64.74665 26.627771
1.9977072 64.63424 27.266256
1.548456 65.403694 23.190218
1.4802275 65.20484 23.432222
1.4141822 65.718185 26.600315
1.8628843 65.34098 27.093092
2.2065063 66.9556 20.026163
2.0640016 66.81546 20.586128
2.2980225 66.31368 22.085043
1.9622623 66.64766 22.75694
1.4276844 66.792725 26.455519
1.8990932 66.425095 26.962221
1.9148874 67.592 19.840319
1.5576792 67.62453 20.579914
1.4344851 67.62637 21.68673
2.042199 67.377975 26.899754
2.256762 68.50924 18.810064
1.5773709 68.56612 19.799026
1.5560249 67.83195 24.967175
1.9526608 68.37663 25.606611
2.2995296 68.738525 26.703453
2.2538457 68.34393 26.93685
2.353932 69.87016 18.860678
1.5444305 69.1848 19.829107
1.5914831 69.30685 23.274466
2.1671228 70.29945 19.261028
1.8317311 70.36487 19.86944
1.4884036 70.71002 20.47921
1.8056477 70.48875 23.169897
2.2518773 70.310555 24.500109
2.3398018 71.11143 26.574099
2.270732 71.42139 19.885107
1.6264093 70.93308 20.529434
1.6203866 71.266304 21.355827
1.7096217 71.002174 22.365864
2.205003 71.333824 23.259151
2.0472114 71.508545 24.617998
1.8951762 71.54561 25.75111
1.9539478 71.72037 26.395796
2.2059157 71.90017 26.97828
2.2175474 73.15218 13.73664
2.1724627 73.18463 14.473985
2.2663422 72.979 15.070592
2.1948023 71.99718 20.9578
1.9761506 72.34794 24.756319
1.8215796 72.43118 25.574877
1.8645929 72.42325 26.434633
2.1817298 72.55639 27.146173
2.210662 73.94614 13.225708
2.0573664 73.71707 13.682433
1.9496492 73.61011 14.324022
2.0342464 73.63971 15.156341
2.232994 73.97853 16.13261
2.2901459 74.00776 18.180435
2.3684175 72.857834 23.637144
2.2020223 73.2088 24.9548
1.9974296 73.19198 25.668177
2.0247178 73.13491 26.523186
2.293395 73.26714 27.129992
2.344658 74.8496 13.2662735
1.8866031 74.38818 13.737495
1.7099996 74.69019 14.611455
1.7670796 74.69359 15.428318
1.9986598 74.62877 17.505869
2.078878 74.65263 18.37634
2.3178775 74.43843 18.951702
2.324833 75.02525 13.031852
1.9042218 75.63252 13.9389105
1.715291 75.74559 14.386889
1.5729959 75.59143 15.549134
1.671719 75.59775 16.431362
1.9831779 75.63518 17.27612
2.1032982 75.3067 18.593658
2.2172823 75.35418 18.972267
2.2946827 77.1793 12.655773
1.9106841 76.59114 13.596476
1.6402025 76.28621 14.557091
1.541268 76.53443 15.650266
1.6778251 76.229004 16.224583
1.9960736 76.146 17.022009
2.3222144 76.093185 18.367834
1.779347 77.83108 12.783869
1.6691931 77.4323 13.518001
1.5536011 77.30122 14.600548
1.5194011 77.36353 15.635603
1.8322245 77.569695 16.195143
2.3351672 77.56603 16.760437
2.0686536 78.58429 12.126056
1.6739125 78.45899 12.536087
1.5651996 78.593254 15.407453
1.8135386 78.43881 15.944213
2.101114 79.43619 12.203216
1.6830165 79.36404 12.64857
1.4915143 79.76016 13.39838
1.4975438 79.73679 14.502254
1.8154483 79.33932 15.319727
1.9407452 80.102356 12.837373
1.6570616 80.21215 13.670886
1.7149513 80.22613 14.2829075
1.7842678 79.947525 14.876211
1.8727922 80.93792 29.68661
1.7874534 80.6312 30.464132
1.6681932 80.96681 31.51275
2.2942486 80.9549 13.975953
2.068244 80.78356 14.122356
2.0209155 81.50205 28.988619
1.5083264 81.35141 29.572775
1.2441319 82.134705 32.602734
1.8448032 82.17679 32.82769
1.7660698 82.40859 28.748741
1.4759134 82.821655 33.139194
1.5866855 83.49549 33.28702
1.4787996 84.059906 28.708212
1.5313804 84.18751 33.03735
1.089465 84.96742 29.271885
1.3365669 85.3054 30.013483
0.9969959 85.41833 30.505535
1.0459936 85.33248 31.118282
1.3599329 84.79337 32.37969
3.0961838 62.04672 25.730377
3.0687368 62.03712 26.440125
3.1806817 62.203617 27.068321
2.8450217 63.080975 23.727802
2.8667302 62.619904 24.689669
2.5550504 62.68322 25.368904
2.6502597 62.552483 26.57375
2.95221 62.697792 27.306026
3.104965 63.065926 27.675373
3.0408566 63.891106 23.015444
2.7577791 63.62417 23.396486
2.5667017 63.725452 27.387442
2.898233 63.698795 27.603731
3.1589127 64.8377 22.564709
2.5099578 64.26751 27.5357
2.7653632 64.62669 27.617216
2.874891 66.142105 20.4002
2.7557158 65.99998 21.97388
2.3205972 65.350525 27.433
2.7779956 65.16156 27.594137
3.0118823 67.18716 18.847006
2.4486113 66.95429 19.821201
3.0256126 66.32542 27.580975
3.128548 68.01924 18.144419
2.5962782 67.96671 18.634378
2.4983435 67.32526 19.369228
2.684557 67.72047 27.43504
3.0250032 67.44431 27.667822
2.9336789 68.6149 18.027838
2.5062711 68.273895 18.560287
2.6680784 68.24725 27.29994
3.0097654 68.167145 27.62144
3.036565 69.47058 18.036388
2.6210082 69.84864 18.322908
2.4979434 69.05478 26.419222
3.331382 70.92807 14.674027
3.4006245 71.123665 15.264452
3.4450738 70.348335 16.531174
2.6210895 70.48221 18.74308
2.7746956 70.811005 26.956718
2.9964666 71.88409 13.8928995
3.2051358 71.27345 14.513617
3.068359 71.40129 15.501109
3.0742433 71.83981 16.436668
3.1916308 71.34366 17.717
2.8433466 71.56373 18.404886
2.8631368 71.60456 19.26219
2.5510278 71.77736 27.333807
3.031353 71.5823 27.638918
2.9678497 72.72971 13.081255
2.4606175 73.00924 13.490109
2.4770474 72.867836 14.484142
2.695751 72.53251 15.47651
2.9492276 72.6322 16.403278
3.1656666 72.64982 18.67595
2.4263937 71.93143 20.06976
2.6815815 72.39275 21.551916
2.4338672 72.91939 27.449436
2.8783233 72.64741 27.728748
2.7213147 73.78132 12.770793
2.458373 73.54142 16.538643
3.0933752 73.22891 19.524607
3.1475606 73.49454 20.769478
3.1361377 73.278915 22.65231
2.7547112 73.28725 23.652054
2.436209 73.39821 27.179728
2.968486 73.33375 27.680819
2.626379 74.43108 12.790212
2.9820223 74.91497 20.319351
3.250795 74.60254 21.456604
2.886098 74.00808 24.416668
2.7051418 74.15187 25.458496
2.687235 74.057175 26.475481
2.7637749 73.87511 27.086891
2.7995577 75.71094 12.787438
2.570182 75.201805 19.52061
2.6957154 75.70043 20.351807
2.9442549 75.459885 21.054403
3.3057275 75.56267 23.050488
2.7441936 76.101326 12.714511
2.7413745 76.65085 18.94659
2.6968741 76.60575 19.433735
2.6767106 76.37808 20.335571
3.0232275 76.83903 22.62092
3.167956 76.83803 23.088886
2.8239086 77.64629 12.099352
2.3605454 77.35169 12.551153
2.8589656 77.70232 16.964327
3.0950139 77.04832 18.437057
2.9308424 77.165794 19.648945
3.199607 77.46822 20.644098
2.9771888 77.31912 21.862318
3.0249107 77.22835 22.280388
3.1491954 77.233665 23.019897
2.6897533 78.65298 11.758319
3.2460923 78.40165 17.26146
3.2171447 77.783264 20.313742
3.372817 77.83527 21.242601
3.255194 77.80484 22.829891
3.3156216 77.82152 22.959688
3.1484158 78.85879 29.728928
3.102094 78.9561 30.521563
3.1799624 79.06636 30.927769
2.726127 79.36865 11.769668
2.7711027 79.39509 16.099253
3.2935233 79.704445 27.412622
2.8249917 79.83091 29.506403
2.7394428 79.69402 30.208597
2.9404993 79.62132 31.26944
3.1772745 80.21702 31.793106
3.065685 80.27646 11.854312
2.409035 80.55249 12.635123
3.0528018 80.700714 15.624653
2.8625338 79.91243 15.949221
3.2478383 80.263985 27.18613
2.7006152 81.04614 28.690077
2.8605685 80.83618 32.259876
3.00584 80.9194 12.735836
2.8320947 81.308174 13.697973
2.7013292 81.20815 14.220545
[...]
POINT_DATA 10044
SCALARS features_00 float 1
LOOKUP_TABLE default
0.8614979 0.8293996 0.83239865 0.90659994 0.9068386 0.87929696 0.9249408 0.5521343 0.56564033 0.72037685 0.71850574 0.68577194 0.6372483 0.66742516 0.80850023 0.8351071 0.78261876 0.7714412 0.7603582 0.9003929 0.9117176 0.87165564 0.80421835 0.9367986 0.9549035 0.94723094 0.9195593 0.8656251 0.39980704 0.5086838 0.5892838 0.5703665 0.3931669 0.52548754 0.6015725 0.56139135 0.2946596 0.5283798 0.57398474 0.5448949 0.38085264 0.44567844 0.3460439 0.4176818 0.48665395 0.41117486 0.48705983 0.49869388 0.43438762 0.23552732 0.39268112 0.4649897 0.48586178 0.40459222 0.28252298 0.4106924 0.41826844 0.34444156 0.3416078 0.25533524 0.27859786 0.25174052 0.46761858 0.41618228 0.53327346 0.5143354 0.47828513 0.40875882 0.5653587 0.55735314 0.5008824 0.5566955 0.44903854 0.48741543 0.4712345 0.51986295 0.52286303 0.59009707 0.5152403 0.57779515 0.6498065 0.6826656 0.7440405 0.743149 0.7307509 0.85759866 0.7809062 0.7505542 0.90658176 0.936225 0.94005215 0.8958242 0.82558215 0.9226811 0.62176895 0.6533443 0.32030675 0.4609349 0.58615243 0.6048279 0.572078 0.2572773 0.36072522 0.5515315 0.5083889 0.25847572 0.29516083 0.5060741 0.47287178 0.26273543 0.24526581 0.12163385 0.15301108 0.45976204 0.41704792 0.3298051 0.3592926 0.3422885 0.38504994 0.32148653 0.40691456 0.2949872 0.320584 0.3130677 0.34406734 0.25738505 0.40640393 0.21689513 0.23511606 0.28507346 0.319045 0.17893612 0.03146191 0.45302117 0.16510019 0.29572093 0.30261946 0.26623052 0.11534887 0.23535499 0.4745162 0.53876984 0.54735154 0.3284936 0.30109164 0.24135523 0.17186472 0.33186546 0.49979258 0.5751706 0.57335186 0.3416962 0.35793498 0.34128755 0.28355324 0.2319886 0.10585941 0.16522321 0.39285916 0.5266897 0.5885174 0.57889676 0.31235552 0.3622812 0.3370836 0.292748 0.20780092 0.15642925 0.09455368 0.28671825 0.29461518 0.27832127 0.25305322 0.22621766 0.202849 0.17176983 0.16603987 0.34708863 0.298039 0.26524425 0.25193623 0.2268055 0.19493519 0.15986952 0.4664268 0.39742047 0.32653922 0.29129905 0.27046025 0.1962044 0.5347563 0.53530425 0.3943358 0.3332423 0.5859257 0.58044624 0.5607039 0.51152986 0.4375459 0.5659475 0.54560995 0.5194523 0.4855051 0.3396601 0.35775208 0.41801953 0.5011462 0.5099828 0.2627169 0.3808783 0.56250167 0.5328646 0.3590283 0.64701295 0.6840353 0.73944694 0.70011985 0.84696853 0.82817876 0.88120496 0.8507933 0.7128768 0.7146299 0.7688099 0.7841822 0.3650437 0.52002716 0.6052529 0.7054843 0.72628313 0.6952613 0.24985747 0.29915234 0.59541845 0.59650576 0.1442871 0.5162531 0.46259913 0.121594645 0.086032055 0.42811814 0.4109467 0.23483466 0.24869028 0.33283004 0.20683727 0.27509212 0.27257246 0.34959054 0.3378455 0.21572989 0.285291 0.33356065 0.32478002 0.18306217 0.20471412 0.26721147 0.1404432 0.1312467 0.02435927 0.15342213 0.36932528 0.18907337 0.15279798 0.12792009 0.03208396 -0.059378367 -0.010776404 0.047820557 0.5152439 0.4510658 0.24743685 0.31011194 0.2678503 0.17939764 0.082813025 -0.120117605 0.102528825 0.064308226 0.56332344 0.5248086 0.29397875 0.16428806 -0.101225965 -0.1527507 -0.051996343 0.168177 0.57109845 0.52614886 0.2697798 0.06482775 -0.014396741 0.25237417 0.43558908 0.53087115 0.54509413 0.21711041 0.13840063 0.16429675 0.1427087 0.16611007 0.22243117 0.12788384 0.15660384 0.20041627 0.26125747 0.24569154 0.3644395 0.36424455 0.11384344 0.036166158 0.12290354 0.15788573 0.2556414 0.26245168 0.24490187 0.51507974 0.024404095 0.10972054 0.17547739 0.24288362 0.23996666 0.11380954 0.12343307 0.11471355 0.5683956 0.27926278 0.059858374 0.18791065 0.22399485 0.20030586 0.22910301 0.54004586 0.53625405 0.37161806 0.31109187 0.0028863251 0.13138117 0.29158318 0.48981452 0.4690336 0.46643853 0.42486054 0.09339941 0.08419006 0.18016368 0.3961622 0.5041774 0.51495653 0.07547995 0.24130994 0.5333765 0.59245086 0.62359846 0.58105457 0.455422 0.5161855 0.64074576 0.6712049 0.66696995 0.62880445 0.63733065 0.71024215 0.6506904 0.7101093 0.66241443 0.576984 0.5192486 0.77313083 0.72554076 0.63486624 0.5446528 0.79081094 0.75301063 0.667948 0.79275036 0.7752353 0.785324 0.76790416 0.7045553 0.6371137 0.69991547 0.72547036 0.66522634 0.5953172 0.7575569 0.61378694 0.6762486 0.6365192 0.5446584 0.4847202 0.5896194 0.7351954 0.8157643 0.83543277 0.8432014 0.43950325 0.41077137 0.5170029 0.30368185 0.4130699 0.7851248 0.77972853 0.47186854 0.50489974 0.5255655 -0.012549192 0.25808188 0.6306576 0.5103877 0.5515345 0.55871093 0.4892075 0.024894938 0.01758343 0.48820266 0.54439783 0.5011094 0.38205355 0.016028486 0.10291718 0.31165093 0.3146293 0.18888077 0.28685302 0.14507803 0.1863848 0.3135367 -0.016414594 0.08360573 0.2964791 0.061594106 0.042281188 -0.016437508 0.010083463 0.20538408 0.20373914 0.15551245 0.074838534 0.12770341 0.11176404 0.08746439 0.2611379 0.2924724 0.18960777 0.119301476 0.14414679 0.41489553 0.4194063 0.3466252 0.24221838 0.21126716 0.46835393 0.4785853 0.38516024 0.46505952 0.49654514 0.47843778 0.15030256 0.39435667 0.48884386 0.06540129 0.105196886 0.36984035 0.51897657 0.14148603 0.21672374 0.1433872 0.11248788 0.14489849 0.3582223 0.4802409 0.5078552 0.511467 0.4168647 0.11759786 0.09590247 0.121245146 0.15069602 0.055756114 0.2547657 0.32327262 0.46598852 0.452729 0.53080297 0.47357053 -0.0891545 -0.008885797 0.07859565 0.12609972 0.20634744 0.13406959 0.09176925 0.12245133 0.060823895 0.049787775 0.07069857 0.2505094 0.39030942 0.5552469 -0.11283299 -0.016370732 0.004748486 -0.033221483 0.080627106 0.056111656 0.07939798 0.5600331 0.52550375 -0.13959238 0.17183244 -0.02073089 0.124868885 0.106008664 0.2384813 0.48604876 0.464253 0.4460781 0.24869658 0.29732355 0.21588013 0.28799498 0.24058245 0.1800979 -0.025445767 0.0226923 0.124090865 0.12670954 0.08927733 -0.02129969 0.15561362 0.43945354 0.42550308 0.41237313 0.3972503 0.38018447 0.44377935 0.4344132 0.3335554 0.0102900565 0.106986284 0.12123326 -0.003006488 0.31910717 0.53881097 0.5813856 0.55707145 0.5903356 0.07622538 0.3516233 0.514987 0.56429625 0.61721474 0.6874149 0.6664841 0.64747024 0.49705547 0.29941577 0.5706258 0.62573886 0.67238516 0.69216645 0.17977062 0.24654156 0.23383406 0.5558119 0.5227238 0.50683093 0.4409823 0.38979334 0.24798317 0.728632 0.64259446 0.40129638 0.30761907 0.82635176 0.5217637 0.47625083 0.80939126 0.80294394 0.65369534 0.54545426 0.5070826 0.80617714 0.7952024 0.76102567 0.6995929 0.5878738 0.7726101 0.82217264 0.82293224 0.73089665 0.73890823 0.79489243 0.7915805 0.68206066 0.5914231 0.6200502 0.6414691 0.570169 0.7521279 0.802935 0.33411008 0.52762336 0.4907251 0.657234 0.7299216 0.8319503 0.8697376 0.2940441 0.3646769 0.3512658 0.2452707 0.36166814 0.43116474 0.86354077 0.81849086 0.4419334 0.43538383 0.116008714 0.06675671 -0.07146157 0.10908412 0.65067387 0.7052705 0.5004654 0.16368087 0.13732749 0.3343616 0.5037474 0.450476 0.3965422 0.18665694 0.056979194 0.060645595 0.31705815 0.35622042 0.19084272 -0.112676874 -0.13463598 0.23304659 0.11992383 0.16897507 -0.18364984 -0.37658423 0.28382123 0.1442943 0.16938496 -0.026451685 -0.05174819 -0.19226748 0.27736178 0.05517485 0.026915327 0.22351548 0.22181037 0.116532385 0.018363228 0.19802281 0.36308357 0.27525634 0.4480071 0.42788345 0.35485655 0.47365677 0.4814316 0.38185745 0.4899015 0.5105164 0.4580251 0.3768515 0.47546685 0.5067253 0.49845374 0.4731524 0.25860795 -0.12966545 0.49992025 0.5236289 0.5415123 0.4709669 -0.26361054 -0.28726432 0.10069756 0.18699077 0.52373827 0.52320397 0.5132212 0.45666867 0.034515675 -0.3463968 -0.026766274 0.45053133 0.42429453 0.5266038 0.0033364594 0.34953034 0.5718826 -0.10843375 0.21515131 0.59031004 -0.07783063 -0.006682176 0.5450456 0.50508964 0.07177494 0.4613685 0.4260946 0.36284363 0.26048002 0.18060789 0.36144805 0.020345178 0.083634496 0.19852674 0.37668324 0.31649715 0.3966824 0.05530359 -0.0061664395 0.19499072 0.49917614 0.54922503 -0.0301297 0.13828605 0.16930827 0.5383448 0.5908313 0.6340114 0.60356534 0.07793981 0.17714657 0.18930225 0.18254179 0.038014725 0.42230442 0.22966179 0.19905959 0.12921928 -0.14180754 0.5064274 0.21125627 0.05776229 0.25697416 0.33728412 0.84375894 0.52517056 0.47235465 0.8098049 0.7996248 0.78367084 0.7098679 0.5665293 0.7634853 0.81499517 0.7839422 0.6835457 0.6911181 0.6534779 0.58833987 0.58742046 0.4898681 0.78220534 0.80029917 0.20628719 0.23304075 0.30624545 0.6894963 0.78287435 0.8248291 0.8564298 0.18222073 0.22667211 0.28436872 0.16649222 0.17500545 0.39224443 0.8202634 0.86278117 0.28192288 -9.192899e-05 0.68879277 0.042667784 0.4675292 0.048288096 0.0103866495 0.11593246 0.13232511 0.08906783 0.022683945 0.003486734 0.25760388 -0.051748395 -0.26694745 0.15168422 0.18656144 0.03925256 0.0969287 -0.14923212 -0.26190028 -0.57087684 -0.3305048 0.2221657 0.08440348 0.12111716 -0.2117338 0.23216367 0.16963953 0.21942422 0.11969982 0.27570963 0.09327935 0.39156067 0.11217511 0.44596297 0.46112907 0.007365808 0.29529867 0.3769734 0.4001468 0.4882489 0.5347744 0.45781878 0.48659658 0.15545967 0.21741316 0.546792 0.5238498 0.4899853 0.487553 0.50400853 0.48031777 0.43373665 0.44866112 0.5285351 0.4782919 0.36732078 0.28748843 0.6429883 -0.031319387 0.043421082 0.620072 -0.11170387 0.55336225 -0.034804046 0.51037705 0.47073925 0.3940484 0.14411454 0.070187695 0.3077958 0.2622307 0.19186474 0.29487088 0.3409046 0.35969773 0.48804712 -0.107410595 0.020907566 -0.008408159 -0.14150196 -0.11099439 0.4215459 -0.108289786 0.031206995 0.09578437 0.714465 0.42718166 0.03615592 0.16780996 0.21795043 0.78175014 0.7833215 0.7730007 0.58040667 0.07108286 0.17202315 0.23821956 0.2297548 0.785877 0.7885951 0.7782844 0.8183281 0.24842897 0.29124275 0.33257014 0.7832669 0.41492796 0.3399536 0.38270187 0.83867794 0.8153223 0.80647343 0.684906 0.42548433 0.7153544 0.7289841 0.6918145 0.56559455 0.63202196 0.53998566 0.5210981 0.17029274 0.3263622 0.15563872 0.16363013 0.18657863 0.3780747 0.08224387 0.13520625 0.221149 0.4166051 0.61333287 0.7221537 0.748413 0.34683985 0.22962251 0.12121826 0.26129824 0.30371058 0.3676676 0.5538409 0.55725753 0.3773851 0.34494805 0.22259463 0.052700434 0.09439726 0.37807342 0.44322014 0.39304325 0.31900895 0.23357427 0.014465988 0.48208612 0.40570873 0.1964019 0.11801194 0.08825204 0.4931742 0.43176836 0.17041686 0.024291206 0.12938339 0.013476521 0.031638507 0.10887913 -0.100152135 0.11712766 -0.012776446 0.013263345 0.29832995 0.39271885 0.31274602 0.38634402 0.35708272 0.27616754 0.38169163 -0.017599225 0.1849253 0.30166376 0.2881133 0.3722173 0.4904127 0.468204 0.41468787 0.4712711 0.45817184 0.37753907 0.17724675 -0.084113486 0.42548233 0.23235671 -0.6208466 0.39875114 0.21131408 0.32654354 0.6275972 -0.13458754 0.5380672 -0.12040539 0.49942204 0.45132178 -0.060555197 0.3421957 0.30874005 0.16591354 0.14187196 -0.062296696 0.30535167 0.065420315 0.08787676 0.06592266 -0.3015067 0.33599246 -0.26845038 -0.19088742 0.55922633 0.4951273 0.3445017 0.20404498 0.102686584 0.16128217 0.25095686 0.7521648 0.7206627 0.35788196 0.2003999 0.08816607 0.22377202 0.31042647 0.762103 0.77317894 0.62735814 0.37347847 0.4271389 0.25217426 0.3331731 0.40121752 0.76275516 0.77780324 0.78707826 0.67884004 0.5086922 0.7003205 0.5792011 -0.10228684 -0.059971146 0.19819286 0.3370639 0.37315863 0.77619445 0.78430355 0.7728031 0.721354 0.7398952 0.10488784 -0.2198195 -0.18428397 0.20891058 0.38512662 0.38132253 0.5902977 0.20025918 0.3681521 0.3769725 0.3603704 0.45318407 0.26310438 0.41978523 0.5333506 0.51191103 0.27286404 0.21822132 0.40797454 0.49351385 0.45968145 0.19005069 0.2025267 0.24590445 0.3941329 0.5370784 0.6427315 0.12510833 0.16166306 0.2320885 0.5584191 0.28859556 0.12229632 0.07783911 0.120215 0.11792981 0.40386975 0.3822923 0.23321629 -0.056721807 0.4655105 0.4021071 -0.20080808 0.57449466 0.51149356 -0.16726601 0.5895932 0.5459686 0.040517583 0.57765144 0.54175234 -0.11374731 0.5125644 -0.10126693 -0.1351166 0.05362459 -0.09025103 -0.08935851 0.37855035 0.38729483 -0.13122386 0.43744227 -0.0807852 0.46171075 0.44605818 -0.12637086 0.22368234 0.42866594 0.15218446 0.20917296 0.2469645 0.25214982 0.3288574 0.23490515 0.4213655 0.27082816 0.10720584 -0.04163196 0.34195378 -0.54406214 0.32806778 -0.08418293 0.1390806 0.17412117 0.5566041 0.39343777 0.11662844 0.572019 0.4165703 -0.037121065 0.51962155 0.47556043 -0.13245718 0.12261132 0.35434026 0.37161767 0.3062472 -0.048731636 0.44896656 0.085254446 -0.09597451 -0.007924583 -0.018209312 0.5422431 0.5141463 0.39532453 0.28927988 -0.49695408 -0.006272114 -0.04102218 0.017903388 -0.34280288 0.62402 0.5390166 0.13023038 0.07402818 -0.36258885 0.31575397 0.7348068 0.082184345 0.39039782 0.74214214 0.12600625 -0.29094946 0.40555358 0.7459764 0.7553263 0.65570694 0.39927393 0.7627083 0.77851033 0.68325615 0.46611595 -0.06475926 0.48838216 -0.03209123 0.32993844 0.5615759 0.7680781 0.7346633 0.65066636 0.3959864 0.20601103 0.086089075 0.43558118 0.6367042 0.70095277 0.462012 0.49578625 0.47811913 0.35204256 0.22847247 0.10235631 0.248573 0.27510792 0.57181376 0.666759 0.7258167 0.5058162 0.5335183 0.51002574 0.44946283 0.37072688 0.36154062 0.5155103 0.6573196 0.70951855 0.55421996 0.5340986 0.45233205 0.5396799 0.6176378 0.3602657 0.5650103 0.27653238 0.3093623 0.32406414 0.34473327 0.22207657 0.35306358 0.37097555 0.38153106 0.51134366 0.565313 0.5988553 0.53889084 0.4750107 0.24450827 0.24525595 0.25333184 0.28241092 0.26763153 0.44973594 0.4669597 0.6095829 0.41544148 0.23025002 0.21401975 0.22111887 -0.15989858 0.33093333 0.4195124 0.2319991 0.2827653 0.32632747 0.2924416 -0.1422063 0.12468439 0.3174606 0.11527391 0.41794735 0.39056695 0.12229833 0.16790676 0.021389026 0.48639005 -0.32089907 -0.48203644 0.025596388 0.07117899 0.59931207 0.044901803 0.06913081 0.09057084 0.6137612 0.026306204 0.59179574 -0.19430508 -0.11392336 0.5438888 0.50885886 0.27544147 -0.29192638 -0.2669099 0.17665735 -0.30737555 0.3688502 0.43233597 -0.33198208 0.45188028 -0.26122224 -0.24427441 0.46648675 0.43704218 -0.23228598 0.049477212 0.023842953 0.23991926 0.3201629 0.34917414 0.31731504 0.011626374 0.34395337 0.32113525 0.3220439 -0.19694076 -0.46022683 0.27307332 0.2026182 -0.56752616 0.17138873 -0.37893128 0.22156984 0.2933014 0.29834187 0.42555547 0.15620545 0.13395736 0.38270324 0.47284895 0.47268996 0.3438537 -0.08708392 0.22214407 0.41141838 0.50067395 0.45401126 0.4000157 0.5117514 0.5677 0.57817805 0.29809803 -0.27063888 -0.04523307 0.44354546 0.4920667 0.5729986 -0.039323844 -0.5386228 0.47308362 0.0064378623 -0.0803381 -0.747293 0.22727929 0.25807145 0.6663575 -0.010262309 -0.5347038 0.24936931 0.6973128 0.69514537 -0.008828193 0.2910912 0.7319909 -0.36287558 0.7176902 0.68335855 0.6193541 0.19826938 0.24401231 0.2064684 0.7145325 0.7430848 0.34200743 0.3534153 0.40785 0.22182912 0.025528472 0.74640596 0.75773835 0.46153015 0.17429772 0.31226835 0.67127913 0.71471953 0.74574876 0.5331728 0.51270413 0.44467992 0.41712332 0.47953534 0.5308459 0.61452377 0.6605194 0.48012948 0.4221725 0.36165595 0.5311117 0.5291045 0.47534153 0.32511276 0.31845063 0.250747 0.25903642 0.3189644 0.34340316 0.38019598 0.3702733 0.4313836 0.48824248 0.5309436 0.44285616 0.27091134 0.27031854 0.2534149 0.25190446 0.05044537 -0.051728524 0.395771 0.27410513 -0.06370607 0.13903251 0.20686015 0.23854473 0.25136197 -0.006920887 -0.13469572 -0.031236656 0.07221901 0.16343516 0.19540866 0.24827975 0.3028431 0.38327825 0.2629948 0.020780824 0.073905855 -0.01639059 0.06853585 0.1427882 0.17670141 0.20545147 0.31267145 0.37806958 0.38873106 0.07874081 -0.09764836 -0.072164446 0.041563112 0.11743601 0.14754863 0.53043175 0.41472983 0.058297798 0.111459725 0.55932313 0.09751819 0.06461214 0.6091873 0.03221929 0.6022959 0.029166956 0.508134 -0.158879 -0.07448663 -0.19110523 -0.021611098 -0.25330245 -0.22120254 0.19376841 -0.28100306 -0.27421084 0.31361192 -0.2582705 -0.27986914 0.35976753 -0.24302402 -0.23200804 0.34782138 -0.28792697 -0.19789995 -0.118840426 -0.062139407 0.088696375 0.17265123 0.3213331 0.420413 0.45012105 0.4781924 0.14023423 -0.1636217 -0.099683404 0.37681022 0.4479341 -0.03500202 -0.4011665 0.30516106 0.3629102 -0.521554 0.14471307 0.16407505 -0.110919416 0.29833865 0.38969114 0.42346656 0.31053936 0.5249798 0.34250155 0.5885711 0.57234585 0.5459878 0.5737853 0.59003353 0.60869664 0.5508526 0.013372526 0.4058877 0.51197004 0.55751806 0.5877199 0.57688916 0.086155295 -0.14022852 0.42008758 0.25121203 0.103130355 -0.14846814 0.418617 0.15569113 0.09955528 0.6011087 0.01555337 0.64148694 0.6092235 0.6718136 0.61489546 0.55803275 0.37887645 0.7396058 0.42853564 0.44037038 -0.036584545 0.24282922 0.7487086 0.45678154 0.43202484 0.28599524 0.2024653 0.68261516 0.7113311 0.36119813 0.42940134 0.44699776 0.36473122 0.19298974 0.17369497 0.36259335 0.5372659 0.5804296 0.6155729 0.39348274 0.44708854 0.42839223 0.4925862 0.516845 0.45168245 0.5012696 0.5206873 0.50206876 0.35933656 0.45778674 0.4637178 0.44060212 0.38942808 0.45882604 0.42464206 0.20814791 0.35099325 0.32109877 0.3442517 0.24845573 0.23713154 0.26993656 0.33677608 0.40665713 0.4322958 0.30238917 0.42278305 0.19634031 0.10477725 0.19892195 0.23107252 0.27168006 0.25173622 0.2209706 -0.056655504 -0.017897975 -0.14628676 0.05232142 0.30210632 0.00039359927 0.11333777 0.20327458 0.24407914 0.2848773 0.34800076 0.34894264 0.3625341 0.20141245 0.2599795 -0.1288221 -0.15947151 0.2556972 0.39381087 0.40881398 0.3879719 0.1651793 0.2281985 0.3801569 0.39371303 0.36554402 0.33274123 0.12213156 0.18797816 0.25525963 0.3303324 0.29894918 0.32847413 0.02866706 0.15185022 0.2248198 0.19786714 0.03666821 -0.0012089908 -0.0060101934 0.37985435 0.35270667 -0.038523488 0.51994574 -0.06916785 -0.047294993 -0.036655743 -0.010669906 -0.02680393 -0.007787455 0.26683426 0.31116405 0.36754376 0.34507316 -0.12118256 -0.06002584 0.14426516 0.32244188 0.42640078 0.4336184 0.42552626 -0.25794643 -0.09734714 0.29817516 0.4180312 0.49050686 0.4851293 0.46363023 0.03081987 0.37191403 0.51591426 0.12088889 -0.22585645 0.21269445 -0.27496967 -0.035708476 0.14833823 0.35634777 0.45226437 0.53334373 0.54460454 -0.097330436 -0.2995264 -0.10759531 0.5157649 0.5632154 0.2023677 0.14543685 0.07094496 0.09922828 -0.22050199 0.4758737 0.16041392 0.1466389 0.15957129 0.14177239 -0.47727123 0.36906183 0.20463689 0.20857167 0.2025654 0.24070284 -0.5467539 0.17867304 0.24953665 0.05783765 0.32713163 0.3629084 0.4656679 0.51910007 0.5190057 0.6048042 0.6018528 0.6319892 0.62173295 0.5920087 0.5340566 0.5889322 0.61309403 0.5988407 0.124441944 -0.07171146 0.12290065 0.3936532 0.17960908 -0.174427 0.27304202 -0.0878803 0.43435037 0.48831433 0.46535718 0.028895766 0.56043696 0.48953992 0.45221475 -0.07756608 0.0833643 0.56380165 0.28979075 0.65405643 0.39213088 0.6983907 0.42412826 0.44435942 0.22374994 0.09888229 0.58964753 0.6126975 0.2530313 0.20235145 0.33564237 0.29831338 0.50154114 0.5031488 0.36902085 0.3775857 0.35752392 0.26047933 0.43537998 0.47308198 0.49974033 0.49517563 0.4762621 0.4736777 0.51184464 0.52730745 0.50483775 0.436003 0.50221807 0.5245273 0.4734323 0.3989701 0.45759147 0.477639 0.36031115 0.3434868 0.41706073 0.40331987 0.35815948 0.20577174 0.13780113 0.1355219 0.3567116 0.3914212 0.15017143 0.30652407 0.31838703 0.3209951 0.200697 0.23690781 0.24175955 0.23649064 0.1894628 0.24343288 0.20539618 -0.101479255 0.057984352 0.17598128 0.3050666 0.30962327 0.27953026 0.5072823 0.36183026 -0.25479752 -0.21109605 -0.41051722 -0.32014254 -0.259233 0.35830882 0.3432202 0.34702754 0.33658004 0.34652653 0.31988254 0.32791847 0.4008732 0.42498326 0.0007557869 0.23603597 0.24507 0.26128048 0.38981766 -0.10957588 -0.19443403 0.03674254 0.089446194 0.18942454 0.005404994 -0.07226657 -0.16326958 0.26146877 -0.14366163 -0.081156924 0.36938864 0.28235957 -0.06703186 0.1133616 0.17234425 0.0007273387 0.01974835 0.25662303 0.24229881 0.24760142 0.13209943 0.07322415 0.3332948 0.34294307 0.055279844 0.0014631301 0.4059899 0.38606688 -0.06685041 0.46775258 0.42295688 -0.10009302 -0.18894674 -0.022751808 0.2347259 0.4679758 0.47762036 0.436839 -0.17234251 -0.33383