# vtk DataFile Version 2.0
Really cool data
ASCII
DATASET POLYDATA
POINTS 9851 float
13.356319 49.00351 30.738972
13.345482 48.98876 31.179478
13.415878 49.353855 30.181423
13.275003 49.523865 30.664791
13.264963 49.53109 31.39381
13.346264 49.77372 31.813068
13.251156 50.041935 30.787361
13.297824 50.113552 31.302176
14.036985 48.25073 30.625383
14.097581 48.198505 31.38492
13.931276 48.74828 30.009674
13.642789 48.690483 30.585358
13.584401 48.747383 31.392782
13.790109 49.047318 32.10648
14.257761 49.604206 29.38929
13.805881 49.581005 29.810478
13.662767 49.438198 32.084305
14.234231 49.63277 32.78085
13.900827 50.24466 29.85528
13.592945 50.360336 30.411655
13.578852 50.484447 31.527514
13.712453 50.27861 32.044205
14.22301 50.132664 32.787144
14.061888 50.737324 30.089834
13.904057 50.813873 30.633568
13.915529 50.91458 31.37263
15.411114 47.053143 34.24636
14.586777 48.175438 30.060724
14.512358 47.963448 30.66038
14.540904 47.868263 30.997871
15.450954 47.366837 34.506268
14.707712 49.00302 29.370354
14.637498 48.725346 29.587759
14.497086 48.3808 32.140144
14.400867 49.742775 29.30819
14.5368595 49.956 33.06969
14.649667 50.14125 29.31136
14.538699 50.468044 29.504946
14.768712 50.338596 33.231426
14.6705475 50.91853 29.850128
14.683946 51.359756 30.734745
14.467907 51.42423 31.390812
14.578805 51.322216 32.36078
14.880503 51.08903 32.859886
14.913354 51.769714 31.61566
15.009517 51.778393 32.08511
16.075777 46.03978 34.430653
16.21529 46.024498 35.26523
15.725538 46.65864 33.92915
15.62021 46.61734 34.559647
15.879519 46.63311 35.28999
16.112862 47.029102 35.871704
15.511978 48.019897 30.172012
15.399821 47.853657 30.640099
15.43683 47.766655 31.204983
15.55196 47.181004 33.74128
15.696313 47.379036 35.250633
16.169909 47.48324 35.841827
15.052977 49.033794 29.332073
16.20146 48.268433 35.66906
15.227511 49.301422 29.210537
15.911768 49.130993 34.330482
15.808881 50.0533 33.84282
15.502639 50.962765 29.772924
15.361948 51.41412 30.45724
15.748379 50.9118 33.534306
15.750013 51.85699 30.95789
15.371994 51.966507 31.446201
15.672909 51.971848 32.319607
15.67274 51.67966 32.905727
17.403902 22.107786 45.72832
17.3187 22.257952 46.33351
17.244665 22.65387 45.654896
17.143578 22.8071 46.490322
17.239214 22.880949 46.898277
17.335932 23.240475 45.27373
17.122713 23.385714 45.80007
17.046686 23.48787 46.407562
17.25062 23.341436 47.01026
17.272503 23.963789 45.93539
17.215126 23.944046 46.39146
17.29853 23.83041 46.92909
17.30345 33.709827 41.844307
17.34853 33.559532 42.330498
17.356337 33.69497 42.82108
17.398869 34.75431 40.901
17.293346 34.325436 41.665
17.289993 34.219402 42.393738
17.355513 35.53659 40.746395
17.320873 35.426697 41.432426
17.395994 35.06278 42.104725
17.45842 36.12333 40.941395
17.381367 35.95543 41.20338
17.265368 45.053802 33.933907
16.95267 45.106068 34.592373
17.036678 45.069286 35.267967
17.224266 45.802467 33.32468
16.802383 45.59163 33.899292
16.54167 45.541767 34.522434
16.600586 45.55746 35.30497
16.997383 45.776035 36.26418
17.166937 46.79772 32.61268
16.581482 46.32801 33.45996
16.617727 46.564495 36.23038
17.184753 46.55721 36.7113
16.117403 47.931793 30.418947
17.07841 47.72478 31.64024
16.644321 47.625164 32.258984
16.631216 47.74902 36.28718
16.511496 48.48333 30.087767
16.709599 48.3572 36.17107
16.507883 49.75543 29.391186
16.376326 49.587738 34.369194
16.967062 49.446327 35.163918
17.254868 49.30871 35.81517
16.856794 50.475964 29.465933
16.622871 50.736923 33.750195
16.870235 51.54522 30.247906
16.319324 51.602436 33.1719
17.006237 50.889748 33.935223
16.540714 51.742527 30.597187
16.66261 52.138794 31.79989
16.537043 52.163513 32.322502
16.904747 51.920864 32.952446
18.197289 21.008955 44.75902
18.14297 20.957285 45.449684
18.183205 21.12806 46.172123
18.143215 21.65948 44.184013
17.9304 21.597 44.68179
17.645754 21.76555 45.602726
17.703098 21.857302 46.436806
18.051767 21.931707 47.07941
18.164478 22.38624 44.006653
17.745564 22.362123 44.629402
17.490637 22.240387 45.20343
17.403416 22.316505 46.535923
17.60889 22.712496 47.21733
18.197533 22.268154 47.64883
18.100225 23.019192 44.113308
17.721287 23.314116 44.813725
17.445307 23.62248 45.386005
17.584885 23.394842 47.328163
17.966965 23.294939 47.646793
18.230757 23.803564 44.73621
17.519032 24.095058 45.82207
17.560598 24.24643 46.50952
17.87622 24.096703 47.144833
18.00006 33.177917 41.310947
17.781624 33.054626 41.746723
17.732193 32.974197 42.406734
18.017992 33.034298 43.16317
17.833055 33.67274 41.089382
17.572226 33.397144 41.564793
17.485819 33.34452 42.65231
17.799723 33.56507 43.2075
18.161238 33.75272 43.614468
18.005747 34.922756 40.097496
17.74921 34.638565 40.568558
17.476238 34.60148 42.7025
17.724298 34.248455 43.149776
17.927076 35.926018 39.93562
17.493576 35.191177 40.439808
17.63104 35.205563 42.520626
17.980522 35.095478 43.107944
17.92493 36.00473 39.949333
17.625906 36.358326 41.340538
17.915642 36.114635 42.130795
18.275845 35.942223 42.83412
18.358843 37.81158 37.579037
18.209955 37.768402 38.519917
18.222961 37.900154 39.480755
18.315289 37.672306 40.39326
17.99106 36.81258 41.400154
18.199335 38.761276 37.732353
18.035208 38.663994 38.519634
17.937565 38.693493 39.280865
18.18354 38.632896 40.12396
18.375898 39.43516 37.558167
17.903242 39.34885 38.588398
17.824429 39.5155 39.49153
18.00155 39.484596 40.210613
18.217304 40.12052 38.035244
18.160149 40.30515 38.445107
17.994356 40.219986 39.53834
18.142303 39.984047 40.26645
18.045214 44.411503 35.082798
17.662838 44.899387 33.84014
17.446411 44.700558 34.569645
17.41943 44.735245 35.221565
17.645279 45.016293 36.29419
17.59334 45.293564 33.409176
17.685843 45.690132 36.79678
17.987278 46.89904 32.281136
17.649261 46.52022 36.980595
17.52629 47.923225 30.701164
17.60433 47.044487 36.846203
18.489458 48.61552 28.169472
17.827559 48.40252 30.16104
17.959793 48.50696 37.307087
18.306625 48.554333 38.127853
17.683342 49.423264 36.367638
18.268538 49.423454 37.6113
18.312876 49.16295 38.065884
17.616425 49.917942 35.242523
17.595716 51.046833 29.777397
17.611643 51.146748 34.081844
17.473726 51.876553 30.819344
17.480274 52.310795 31.921015
17.694004 52.408474 32.505455
17.713797 52.107037 33.290386
17.876749 51.847073 33.80681
18.816965 20.334845 45.342472
19.026636 20.32202 45.920834
18.86005 20.928207 44.144455
18.656475 20.692463 44.653725
18.515423 20.558151 45.402832
18.875002 20.809925 46.494247
19.024847 21.31127 47.175354
18.699602 21.639994 43.801426
18.637543 21.551693 47.305183
18.91803 22.121473 47.851444
18.904024 22.615288 43.433453
18.57826 22.41543 43.638275
18.666553 22.681427 48.001904
18.74881 23.296326 43.851345
18.769775 23.379414 48.11457
18.442207 23.933802 44.91596
18.260426 24.30872 45.489857
18.510532 24.150642 47.386135
18.80337 24.624872 45.82015
18.112482 24.518187 46.193653
18.870657 32.46936 42.44462
19.35997 33.15865 36.392838
18.489721 33.164253 41.165443
18.345736 32.774296 41.73927
18.401026 32.59302 42.364803
18.554623 32.85231 43.39186
18.805384 33.014763 43.729298
19.377163 34.104813 25.651876
19.358232 34.204617 26.362953
19.338638 33.687042 35.185802
19.196085 33.63829 35.602936
19.230297 33.566463 36.43999
18.691523 33.905853 40.490944
18.571466 33.47441 43.812817
19.228016 34.741405 25.139301
19.232328 34.54987 25.592127
19.240019 34.660954 26.437614
19.321398 35.148 27.206078
19.295933 34.448833 35.02008
19.071796 34.199013 35.54403
19.036585 34.232433 36.284687
19.40567 34.424034 37.359642
18.608599 34.624966 40.09818
18.481308 34.17096 43.77687
19.241344 35.51731 24.963776
19.01728 35.35515 25.598257
18.970304 35.50994 26.43986
19.239912 35.61846 27.31326
19.188309 35.729343 34.845406
19.019245 35.69341 35.508953
19.047295 35.787983 36.348415
19.307076 35.548542 37.52787
18.699362 35.224163 39.6107
18.583488 35.342827 43.423744
19.129744 35.363617 43.746838
19.119043 36.609222 24.973242
18.758955 36.62558 25.765018
18.75466 36.465908 26.389309
19.25377 36.39332 27.6423
19.256506 36.750286 27.80124
19.005058 36.5724 34.916748
18.88085 36.57174 35.582558
18.981234 36.50927 37.347942
18.688877 36.80595 39.093662
18.623302 36.5878 42.546722
18.72226 36.00928 43.09763
19.016903 37.01107 25.236607
18.756834 37.067158 25.831274
18.802763 37.411198 26.387627
19.022594 37.543167 27.399702
19.099148 37.26128 34.870544
18.906042 37.251118 35.35444
18.735641 37.3987 36.77234
18.656052 37.50025 37.289536
19.082125 37.204544 42.257053
19.159737 38.427113 25.745043
18.93595 38.517384 26.746273
19.026627 38.646557 27.433947
19.202606 38.40499 27.990295
19.175371 38.081375 35.521683
18.76383 38.568718 36.865643
18.455772 38.663982 37.3643
18.794886 38.371994 41.0726
19.107508 39.344955 26.706232
19.137619 39.230724 27.52944
19.331665 39.377396 27.942097
19.373922 39.243946 35.931385
18.726206 39.38248 37.032085
18.48607 39.543526 37.37099
18.579008 39.583042 40.715424
19.31295 39.910812 27.237314
19.179092 40.76831 37.07744
18.629946 40.33709 37.54673
18.443405 40.685257 38.317406
18.36481 40.65393 39.6191
18.522617 40.381397 40.453217
19.324701 42.223263 21.305483
18.844316 40.88422 37.441475
18.79824 41.37583 38.66558
18.776241 41.218643 39.354145
19.158905 41.19593 40.344067
19.245586 41.202892 40.91923
19.388742 42.776173 20.66461
19.208578 42.628677 21.279482
19.135962 42.69233 22.52106
19.133694 42.903065 23.305485
19.362564 42.91926 24.090267
19.382944 41.801067 40.209988
19.285168 43.275726 20.946617
19.097134 43.438374 21.49915
18.8075 43.589874 22.585377
18.673508 43.899662 23.41141
18.992023 43.628788 24.053493
19.203182 43.53175 24.818161
18.152872 44.43549 34.296066
18.65778 44.46567 35.532696
19.12618 44.215214 36.28666
19.126192 44.142796 21.794508
18.721828 44.412968 22.659716
18.628387 44.409977 23.353762
18.855839 44.44775 24.203037
19.354492 44.73887 25.360912
18.5952 44.53571 33.86433
18.151602 44.494286 34.163754
19.208208 44.54684 36.512352
19.026106 45.076103 22.712618
18.949268 45.135628 23.426462
18.965502 44.949306 24.369947
19.228264 45.789852 31.96687
18.232391 45.5532 36.998837
[...]
POINT_DATA 9851
SCALARS features_00 float 1
LOOKUP_TABLE default
0.86910796 0.84281254 0.89399886 0.88313276 0.8355758 0.7969476 0.8743881 0.8392062 0.8340016 0.7912166 0.86870134 0.86427903 0.8199565 0.76077294 0.8571763 0.8838434 0.7704957 0.65168345 0.8647088 0.87000537 0.80154735 0.7480563 0.6465371 0.8234267 0.8178793 0.7816421 0.53679943 0.7900547 0.7709669 0.74797267 0.5468562 0.8237339 0.823398 0.6883858 0.8461597 0.5557753 0.81349117 0.81335557 0.50682425 0.7617949 0.70009553 0.70620745 0.6568006 0.58240974 0.6404656 0.6184409 0.5279315 0.5685937 0.5065962 0.5541678 0.5682901 0.52516824 0.5757733 0.5317327 0.46314067 0.47459832 0.5507587 0.49198738 0.78724134 0.36472943 0.7713158 0.2103825 0.27066574 0.65471816 0.6196486 0.39161727 0.5631803 0.59351313 0.55548334 0.51270545 0.7440827 0.7610743 0.80043185 0.82504493 0.8185319 0.80491626 0.84364855 0.86694455 0.8531213 0.83897793 0.8703171 0.8750303 0.7853166 0.82868135 0.8234728 0.65101796 0.7293912 0.75987935 0.59790945 0.6419667 0.6669712 0.5524897 0.58683467 0.43704814 0.48091668 0.51474667 0.3433928 0.45759064 0.503075 0.55325085 0.51318765 0.06697318 0.40621933 0.48890293 0.3914594 0.31914556 -0.04481197 0.012085516 0.37895665 0.3555221 0.29367042 0.74963135 0.14207739 0.101503015 0.12658854 0.5674104 0.27354234 0.44899184 0.43628144 0.24963973 0.48480383 0.50702834 0.4990729 0.43878508 0.67444134 0.6421951 0.60837626 0.7064228 0.7057438 0.70222497 0.68675554 0.65150714 0.70438325 0.7434944 0.75003254 0.7583947 0.76515514 0.6525103 0.69483495 0.7507329 0.799108 0.828087 0.77200896 0.65771544 0.80372226 0.8487139 0.8428141 0.7711723 0.83590424 0.89172035 0.90596163 0.7038474 0.78586483 0.8620362 0.84764314 0.81392515 0.51958185 0.60081667 0.71439135 0.75777626 0.45069784 0.581498 0.63290566 0.62373126 0.44499135 0.52578145 0.52223426 0.46835536 0.22045234 0.24431334 0.32199866 0.31701756 0.42123663 0.29921114 0.35631382 0.41954583 0.41263402 0.31120622 0.42046803 0.47910064 0.41346884 0.38874352 0.43898225 0.44530064 0.3676892 0.41221023 0.39520806 0.44716424 0.47527564 0.5189541 0.34050933 0.4140673 -0.05715909 0.3280141 -0.07133934 0.29870492 0.46461937 -0.0698001 0.2650296 0.3557124 0.15082447 0.3131832 0.36857074 0.020638771 0.35148215 0.24056666 0.4053671 0.4668786 0.45145196 0.4112572 0.35313886 0.5758381 0.52463436 0.6394965 0.6385588 0.60194874 0.50648415 0.49286616 0.65522254 0.55275935 0.55483526 0.58000165 0.6431228 0.6229867 0.6000365 0.6492071 0.6294969 0.67117596 0.7728404 0.60024726 0.7527282 0.8861587 0.5557489 0.74349815 0.8565439 0.91800416 0.91692495 0.87932193 0.46108243 0.48292553 0.49856755 0.51726294 0.5389304 0.54223436 0.83265156 0.39793193 0.445109 0.4771362 0.43877918 0.44963855 0.47600183 0.47533143 0.41074544 0.4682477 0.7479558 0.36079696 0.44365284 0.48254377 0.42243415 0.41670144 0.391227 0.31398356 0.171002 0.3836571 0.5201389 0.47204375 0.32776582 0.43216664 0.47304285 0.38969898 0.38229978 0.4015924 0.35008252 0.16363595 0.118789345 0.35026732 0.39957234 0.3313542 0.40546346 0.43016028 0.42480198 0.36400938 0.33467978 0.22757205 0.20439062 0.21613683 0.3326039 0.4159605 0.4208178 0.41639006 0.25404647 0.23281293 0.26614362 0.22269766 0.37129003 0.39862418 0.38657498 0.14437127 0.2493215 0.2927264 0.288243 0.34135124 0.21060444 0.3209494 0.42060173 0.3787443 0.29967624 0.71046543 0.2870268 0.34329408 0.31746095 0.24179025 0.24063517 0.79076886 0.7258864 0.5991439 0.47782725 0.3655116 0.18554622 0.76167846 0.723882 0.6708844 0.5913484 0.43539095 0.30293137 0.37366873 0.38602084 0.3145667 0.7328683 0.736637 0.6763662 0.52924097 0.31587902 0.2854436 0.36770523 0.3300928 0.74445194 0.736272 0.58159304 0.017247103 0.36325276 0.7468314 0.7471049 0.69018817 0.40724376 -0.21052092 -0.12941639 0.23075609 0.67530024 0.7377403 0.7351713 0.6442574 0.44083527 -0.1549936 -0.17184354 0.29697174 0.7078989 0.65566003 0.5844998 0.47782618 0.48575214 0.42018074 0.5759248 0.50029325 0.5134253 0.39262438 0.44805026 0.5015789 0.5048799 0.38260978 0.25083792 0.28666615 0.40272647 0.18435086 0.21372148 0.20624077 0.32069352 0.36028463 0.30645767 0.42753756 0.43708342 0.41718295 0.3356416 0.50248957 0.5365082 0.51946175 0.47540355 0.42312017 0.53791684 0.56174356 0.4059258 0.5030189 0.5424863 0.48700672 0.46525413 0.50833327 0.4807328 0.48740622 0.5533491 0.44253135 0.41597396 0.19499995 0.39222193 0.43907887 0.5350624 0.53204274 0.5308163 0.21731661 0.23108023 0.48361334 0.5183152 0.5181409 0.32198328 0.4353401 0.49227098 0.4883915 0.28811288 0.3941718 0.4550045 0.4648738 0.359318 0.4117834 0.42587703 0.8463555 0.5111002 0.54270583 0.5488383 0.47101352 0.36562443 0.7398088 0.7419666 0.8775774 0.8326609 0.49354243 0.46336937 0.41215748 0.47340187 0.49079424 0.47755915 0.40125406 0.4920776 0.52412856 0.25159058 0.7508767 0.5828207 0.5623104 0.52994025 0.3277426 0.3594945 0.42182535 0.42950535 0.40461326 0.38797024 0.4322438 0.67014205 0.6078273 0.6023086 0.52289927 0.31735352 0.37332332 0.33573306 0.38311106 0.4105742 0.235733 0.42729646 0.58466935 0.5640352 0.48321906 0.17802826 0.3436548 0.38138545 0.40533763 0.29440635 0.14155069 0.18146873 0.34365618 0.30533636 0.2936701 0.29895145 0.24654843 0.22170946 0.13764277 0.29903597 0.39115843 0.32721207 0.21431774 0.1959519 0.20717308 0.073558114 0.10987433 0.33698744 0.12267869 0.11089098 0.13303743 0.26052418 0.27641293 0.28598508 0.11391251 0.23166512 0.22402626 0.85455036 0.7981794 0.7104708 0.49825937 0.41021138 0.07039555 0.13568337 0.13875362 0.09252042 0.20776117 0.27509034 0.27850097 0.8459064 0.8126066 0.18331178 0.13016917 -0.047979604 -0.06576012 -0.07039887 0.044474795 0.17909876 0.26731992 0.29391748 0.8284979 0.7946452 0.13462092 0.14158042 -0.09015779 0.03037361 0.095633835 0.115300655 0.17266372 0.2411975 0.27922904 0.7539821 0.7368566 0.22456205 -0.051298868 -0.029724851 -0.0037219003 0.22901459 0.074193135 0.6146312 0.6596737 0.60982656 0.59418964 0.70694745 0.70893323 -0.052466296 -0.016821057 0.029601239 0.6136392 0.6875659 0.64816344 0.5757811 0.5353663 0.6101185 0.656736 0.4056785 -0.05879557 0.59731066 0.52038974 0.45161664 0.289918 0.42335114 0.19962616 0.5561245 0.51050735 0.4387293 0.40980285 0.36081278 0.4933037 0.49575844 0.426099 0.47213674 0.4986801 0.41506433 0.4026698 0.36315012 0.5031976 0.44531393 0.401972 0.40105876 0.34931725 0.3567417 0.4139322 0.24032587 0.13534608 0.18079548 0.3803993 0.37067497 0.27961388 0.34724867 0.35216418 0.3055809 0.3286966 0.36501646 0.37828374 0.47197747 0.5022466 0.46266037 0.38796237 0.36284313 0.44311357 0.418882 0.34674507 0.3934871 0.27232772 0.35323614 0.31332687 0.3813962 0.29703757 0.4488017 0.2946462 0.44092354 0.17745894 0.43820798 0.4878826 0.51405203 0.5009191 0.32108712 0.2693225 0.29205346 0.5301983 0.5090003 0.36639214 0.33713323 0.08621983 0.23030597 0.27931595 0.5059284 0.46632043 0.35072562 0.32897162 0.23686612 0.089688346 0.1194624 0.21290249 0.4813761 0.45052224 0.21634993 0.12026243 0.28330123 0.45046484 0.4231141 0.096302144 0.22458181 0.2962889 0.37877634 0.39359504 0.04247471 0.11071773 0.29323965 0.3149485 0.26655415 0.49705574 0.47904074 0.37968937 0.28394774 0.42342973 0.44496793 0.41907078 0.47254264 0.5069842 0.40902773 0.2726081 0.4508158 0.6533736 0.649742 0.375112 0.4574747 0.36129364 0.48525235 0.4378298 0.39820933 0.37343544 0.4715029 0.43208247 0.40081263 0.33906955 0.35654995 0.44014895 0.1061866 0.39086285 0.64718664 0.63226354 0.5767575 0.57046485 0.45891345 0.5229229 0.37269056 0.31726402 0.3351224 0.5780438 0.6897053 0.68226504 0.6180313 0.54900104 0.5405275 0.5826146 0.27093974 0.32170516 0.4182197 0.7040878 0.5246839 0.25461262 0.27755627 0.27990144 0.31450188 0.33717465 0.19915023 0.21209446 0.23086077 0.24489637 0.13004008 0.0547057 0.019581027 0.21671176 0.031512834 0.14292361 0.16486435 -0.1173053 -0.054412916 0.2819807 0.0052179983 0.06266151 0.27570754 -0.18961927 0.16978629 -0.028040336 0.18624356 0.104018256 0.87283456 0.82254004 0.18990509 -0.09067404 -0.11889531 0.23711084 0.21271038 0.8734895 -0.08431067 -0.13193326 -0.16593292 -0.1910152 -0.24369852 0.26054072 0.8523903 -0.17896147 -0.27373123 -0.09188128 0.169089 0.17897455 0.551903 0.5511464 0.81790257 0.7811396 0.016123164 0.009998465 -0.12332192 -0.17801091 -0.07448489 -0.14201716 0.006133586 0.12507497 0.5362841 0.5494231 0.5740682 0.5356446 0.5846628 0.56369925 -0.08287113 -0.014232613 0.48471135 0.47033542 0.41750288 0.050395876 -0.17133082 0.46151662 0.40282166 0.27398962 -0.010334497 0.31162798 0.33358604 0.32542175 0.32269323 0.09785859 0.16104797 0.3233754 0.23438136 0.4374041 0.25966662 0.23905253 0.30807096 0.27861303 0.48724315 0.35867524 0.20921206 0.32795447 0.33106905 0.34309474 0.3233241 0.42140234 0.058879253 0.093139105 0.3505996 0.33904076 0.30253875 0.31511888 0.32155934 0.32319495 0.15955707 0.19606829 0.1870591 0.106906526 0.08922847 0.28898317 0.33407393 0.2971243 0.27014276 0.27374685 0.6662941 0.68573344 0.74834836 0.7502245 0.75482666 0.8578199 0.8284248 0.8445701 0.8847181 0.88373184 0.50525284 0.5249593 0.6430831 0.68418413 0.7464017 0.5626261 0.6946304 0.8146062 0.84361815 0.5854782 0.71083546 0.82358867 0.8546603 0.6971662 0.7594427 0.79126275 0.44289756 0.39487714 0.2772468 0.25273907 0.40462354 0.14998285 0.24542029 0.078469574 0.16246383 0.13092215 0.13262215 0.35277897 0.44127432 0.19376041 0.19339597 0.4581473 0.47870642 0.45613265 0.2887342 0.47818106 0.39151335 0.81205523 0.80840015 0.33184862 0.36711863 0.7933626 0.79843414 0.3185952 0.3973438 0.78341436 0.7807076 0.3108656 0.22864299 0.35569823 0.21894959 0.19510391 0.13972741 0.06738226 0.28554055 -0.014268652 0.0044402108 0.12297945 0.11387457 0.37481725 0.3971843 0.28205788 0.07947994 0.08216048 0.062200688 0.067341596 0.022268143 0.06267922 0.24306841 0.30240333 0.30258211 0.27965266 0.21925654 0.3383773 0.358706 0.3716835 0.35614973 0.33576426 -0.026438132 0.33036932 0.28043264 0.29856795 0.23363736 0.1307356 0.17089684 0.37370288 0.3093881 0.3562345 0.35993627 0.30279234 0.31378788 0.27110448 0.29503083 0.35865968 0.5296229 0.486912 0.44221365 0.35918283 0.4317279 0.45781836 0.27791485 0.22902371 0.24702334 0.46348104 0.62171876 0.5177549 0.47057384 0.5074486 0.25910404 0.20313254 0.13433476 0.36613858 0.6824508 0.6561861 0.5823686 0.5554428 0.23543087 0.21963558 0.08751333 0.19196004 0.26437202 0.24825406 0.13274582 0.053520836 0.22952469 0.02537629 -0.038914524 -0.11550922 -0.06604269 0.13755172 0.27455485 0.313356 0.31811598 0.019536868 0.011171579 -0.11925096 -0.014772723 -0.0073451977 -0.18127547 0.27333623 0.33159047 0.344914 0.6054759 0.4307323 -0.004636284 -0.077563904 0.07893014 0.20651427 0.33062845 0.38070634 0.85660183 0.8008199 -0.35713428 -0.2708436 -0.15447742 0.10574593 -0.07484196 0.15874182 0.3001669 0.40871182 0.8159355 -0.22194089 -0.23891462 -0.30260864 -0.2929957 -0.23162767 -0.067321196 0.009601116 0.1753199 0.38724932 0.79128087 0.70804083 -0.29377276 -0.35949033 0.03135094 -0.09262581 0.4274155 0.699455 0.5999123 -0.024655327 0.409189 0.4312711 0.47564256 0.40117338 -0.11416952 0.062171105 0.41610265 0.34821576 0.33596346 0.2610746 -0.28103122 -0.27253693 0.14914748 0.3263633 0.3372076 -0.089577645 0.10752563 0.27850026 0.33449873 0.31444445 0.10686597 -0.025451757 0.21073435 0.26695547 0.40480646 0.17563242 0.047965318 0.1781615 0.18411341 0.45757025 0.0819591 0.26099333 0.23171127 0.5119209 0.5267038 0.30569303 0.22689879 0.016759984 0.010030955 0.12664141 0.10809128 0.03202263 0.16766313 -0.0064748526 0.05745212 0.18887857 0.25651392 0.15718253 0.14027604 0.08273016 0.11145588 0.16641149 0.06654258 0.08819197 0.09882154 0.23516709 0.30888474 0.22527055 0.22000797 0.29316694 0.2573781 0.20452766 0.21029821 0.54535705 0.5881533 0.589761 0.6527983 0.63812757 0.66676223 0.6468396 0.7706869 0.7342843 0.7232933 0.65607774 0.87413657 0.86215067 0.81589234 0.7537071 0.9106791 0.91303265 0.91463226 0.92483616 0.9343009 0.54842263 0.46402666 0.55485 0.5142226 0.43054485 0.40405858 0.52948505 0.4769872 0.44033462 0.4520424 0.43560493 0.5002193 0.48248976 0.65101695 0.49982545 0.50984436 0.4353059 0.5048512 0.82757837 0.8313941 0.43257904 0.4822725 0.48156634 0.47644293 0.4695297 0.5357382 0.80426776 0.36982942 0.40428174 0.43554625 0.43060708 0.37853324 0.39172006 0.38214964 0.47161204 0.5495641 0.6440531 0.7404587 0.7543715 0.7274652 0.3701507 0.3883775 0.37011087 0.2844007 0.32001412 0.33984852 0.35701692 0.5764109 0.6536814 0.70784307 0.71174246 0.3677776 0.28943282 0.16460338 0.2548699 0.2986455 0.01324911 0.023834221 0.55807406 0.60745525 0.6231214 0.6225526 -0.09126151 0.48992583 0.54591656 0.6084943 0.6193033 0.17367457 0.34626982 0.41373155 0.485534 0.52486837 0.5983571 0.3137194 0.38183707 0.3754517 0.49130493 -0.034131505 -0.4159189 -0.18068036 0.2361747 0.2824338 0.28826725 0.11464138 0.16729625 0.17437892 0.36463124 0.28067288 -0.05564156 0.71505785 0.8042735 0.80308044 0.21476083 0.18291453 0.6937976 0.78151286 0.82066715 0.8181218 0.79943746 0.25477776 0.0107000545 0.6847695 0.75983894 0.7811648 0.79710996 0.8008984 0.28696293 0.17216411 -0.013202034 0.7438128 0.76414526 0.769421 0.7794954 0.2700655 0.079336464 0.71351576 0.40072566 0.36912328 0.13444829 0.33593264 0.3189459 0.28393584 -0.04588677 0.17734852 0.24708763 0.2276144 0.124085665 0.25609615 0.29860586 0.10770713 0.08683317 0.0511491 0.17620394 0.03738287 0.13941576 0.0019677281 0.3358303 0.44928867 0.29169092 0.27672043 0.2719031 0.20351861 0.22013572 0.2772674 0.23418315 0.1875473 0.15936008 0.08824878 -0.1658768 -0.22645257 -0.2812626 0.18585883 0.22235616 0.35121682 0.46403763 0.5158444 0.52432746 0.36003947 0.2720832 0.28101313 0.28278643 0.21786472 0.13093288 0.0065337718 0.44117695 0.51442635 0.54435885 0.3807036 0.13472126 0.045792013 0.6282686 0.44362366 0.36600614 0.45234594 0.5249403 0.5688319 0.46194845 -0.09702496 0.028382197 0.5778935 0.59747493 0.5261251 0.44153628 0.47653037 0.5637567 0.41524094 0.15522517 -0.23403859 -0.06043674 0.021436162 0.09033199 -0.32077295 0.14864892 0.22609708 0.08965529 -0.40857926 -0.23001762 0.205654 0.29554474 0.3179312 0.3320923 -0.39550266 -0.22386122 0.070896134 0.34863812 0.35563374 -0.39574856 -0.37559855 0.38930956 0.38018358 -0.40252393 0.38640416 0.72487354 0.6285932 0.38213038 0.6301929 0.5599705 0.46914846 0.18651602 0.37192935 0.26222372 0.2725924 0.31076604 -0.62601835 -0.32377297 0.33947712 0.3599902 0.27229786 -0.19771558 -0.20791888 -0.6845492 -0.31459132 0.33345008 0.37637544 -0.47460794 0.27576497 0.3467391 0.3594203 0.18909097 0.2764504 0.42786992 -0.14287382 0.13222866 0.4580989 0.47484767 0.26270306 -0.004810311 -0.09162636 -0.10269599 -0.0039022155 0.11779831 0.04681334 0.11333555 0.00037883688 -0.10158679 0.09018902 0.13932338 0.056894533 0.11273626 0.1334859 0.12624134 0.11703818 0.23932737 0.13832179 0.19141546 0.13765347 0.38443893 0.35162252 0.4583071 0.5211474 0.58458716 0.5722466 0.53827375 0.71112305 0.61184496 0.8586699 0.69185287 0.88922334 0.9103044 0.8973192 0.83564377 0.8844538 0.9146248 0.92060256 0.9006194 0.4389968 0.4789421 0.4986034 0.48295298 0.45786178 0.5300708 0.53574175 0.5009641 0.535377 0.4927228 0.45920703 0.38389137 0.37800813 0.47553828 0.56341445 0.5445602 0.5063717 0.5541923 0.5527848 0.5178235 0.4163518 0.332133 0.5230913 0.49278355 0.39343363 0.5597844 0.5617566 0.34518835 0.28484073 0.39285937 0.39279345 0.5477444 0.3262457 0.5126763 0.5136117 0.5106907 0.59942555 0.5097263 0.5125985 0.48479813 0.43125704 0.42003262 0.41973358 0.3807181 0.43633053 0.45595956 0.42230844 0.38913077 0.41258425 0.42561984 0.72971797 0.33580685 0.35930553 0.40029985 0.376903 0.3313315 0.5024385 0.5331516 0.6977225 0.70971173 0.25134012 0.20999071 0.342503 0.31344223 0.5618013 0.5798092 0.6165483 0.6529596 0.25843456 0.2511527 0.18890871 0.2711291 0.31865373 0.53556895 0.58170843 0.59030604 0.25291234 0.24468195 0.2070784 0.40344587 0.6037283 0.60588264 0.6122216 0.6031654 -0.013888627 0.5875253 0.581623 -0.074688435 -0.03338048 0.027056418 0.030570954 -0.104925334 0.6717511 0.7284802 0.7205519 0.64305747 0.08685916 -0.1883164 0.54306877 0.7052687 0.71103156 0.17396444 -0.23750518 -0.19208153 0.7871835 0.75287217 0.511662 0.18803108 -0.18859793 0.7413239 0.75318265 0.4712595 0.48354697 0.4941694 0.4335486 -0.27338624 -0.2391149 0.56259286 0.6523624 0.6607398 0.42966396 0.44629192 0.39925587 0.3427916 0.13828701 -0.22219476 -0.025044598 0.20970061 0.08917701 -0.12499891 0.10394737 0.40650183 0.27822983 0.25325093 0.20150895 0.11192105 0.15367799 0.20740327 0.22036317 0.21759643 0.1936611 0.23918027 0.21185267 0.18367754 0.11683607 -0.09116259 -0.15803094 -0.14699528 -0.24710104 -0.24520685 0.41282618 0.45906603 0.49014014 0.37942994 0.3213563 0.17136581 0.11785197 0.21315521 0.22232959 0.14944601 0.035185613 -0.23340717 -0.26305598 -0.18043764 0.51100564 0.516785 0.52230257 0.11658157 0.13727215 -0.22417212 -0.10122971 0.5604653 0.55223703 0.59888774 0.5613834 0.13819148 -0.16001534 0.5163833 0.2673586 0.21948455 0.38512647 0.51041853 0.5488646 0.67246807 0.6294194 -0.27601394 0.44653097 0.5078029 0.32617986 0.24478684 0.680895 0.6340854 0.51089627 -0.32563037 0.16242373 0.21076666 0.64713037 0.525489 0.0874121 0.022965048 0.26974767 0.2949193 0.30388963 0.03819888 0.32374793 0.3390811 0.34690166 0.4497992 0.32538185 0.348436 0.34901708 0.28628388 0.4782285 0.21099271 0.21680772 0.4018327 -0.11513454 0.31261298 0.10192892 0.07664779 0.21210231 0.2623601 0.052358113 0.35369104 0.3847939 0.14734386 0.41284758 0.4134935 -0.35212716 0.37055063 0.22024465 0.27438295 0.32186982 0.30003744 0.18409556 0.23204869 -0.1271522 -0.24779159 -0.22128567 0.20155746 0.31949866 0.025208324 -0.012532763 0.37743446 0.35506862 0.2841872 0.18824068 0.17525183 0.14716166 0.16810851 0.20998321 0.26351193 0.28726238 0.2469353 0.13673195 0.044599365 -0.11647707 0.3468804 0.25435916 0.16522789 0.18103015 0.37002492 0.41958347 0.44594514 0.7129891 0.46390158 0.53561693 0.857906 0.6489564 0.8515569 0.8330457 0.81799364 0.7578379 0.86541355 0.85880005 0.83106446 0.34408054 0.37729833 0.38419613 0.42670357 0.47567105 0.29472208 0.3717584 0.41858897 0.44547832 0.45484194 0.46618205 0.44747102 0.39377943 0.33597732 0.39884716 0.4238469 0.41873783 0.5032138 0.47643355 0.42256662 0.34516627 0.09401764 0.26559517 0.39261985 0.30555207 0.528957 0.5257808 0.19416323 0.118965834 0.06923342 0.3743152 0.5407207 0.15631396 0.007100284 0.24962525 0.3303149 0.52541554 0.20729598 0.26660335 0.2626111 0.45643693 0.49363738 0.53702253 0.4618402 0.41397816 0.40827894 0.40788293 0.58437794 0.3374285 0.39452904 0.56776357 -0.26028696 0.11314915 0.0989335 0.15887532 0.30308992 0.2573759 0.47973275 0.62301403 0.24505222 0.21917078 0.17831059 0.18642713 0.011047199 0.58571684 0.6228261 0.5183566 0.624512 0.25850657 0.061968 0.42040682 0.520152 0.5408188 0.5683539 0.28430712 0.27065423 0.2603003 0.11787709 0.5500822 0.5315622 0.35186675 0.31162855 0.25550443 0.22739908 0.2007862 -0.16133843 0.5372867 0.4007643 0.32169306 0.25483263 0.15415017 0.36999375 0.31231785 0.21613458 -0.16890946 -0.11414264 -0.16595392 0.26227468 -0.15787913 0.18193865 0.5716342 0.5594697 0.5332041 -0.026197232 -0.054928854 0.45372182 0.53087777 0.5717102 0.54937387 0.5763897 -0.021551244 0.62619275 0.65787977 -0.121987276 -0.203618 0.7385305 0.4842285 0.5014821 0.5115016 0.46694514 -0.16602375 -0.23314454 -0.15847385 0.7372689 0.38449383 0.4605264 -0.2163117 -0.19809681 0.42568433 0.4540674 0.5919317 0.6735727 0.39674473 0.43508354 0.19099106 0.18493919 0.35392123 0.25329068 0.27102774 0.2524153 0.20774177 -0.32154828 0.1991266 0.3859443 0.34052297 0.33801088 0.26256442 0.18372925 0.13034372 0.18829627 0.22821589 0.18744655 0.14069638 0.23517495 0.2139485 0.16203457 0.09447844 -0.01626381 -0.34380454 -0.39453983 0.4742522 0.5338714 0.44201714 0.1344146 0.013932206 0.23356538 0.52055013 0.5759851 0.50529885 0.54682183 0.54263186 0.64728445 0.54366755 0.22466466 0.3916158 0.49025047 0.52264297 0.52564096 0.72522885 -0.14922872 0.2761421 0.2780883 0.22403444 0.18358642 0.72605896 0.40509617 0.6985537 0.6712418 0.5536685 0.3503015 0.38490427 -0.034