# vtk DataFile Version 2.0
Really cool data
ASCII
DATASET POLYDATA
POINTS 6709 float
-7.671372 -1.6543442 28.663696
-7.797528 -1.1322196 27.952742
-7.874271 -1.2840534 28.597298
-7.835168 -1.2110194 29.326412
-7.62212 -1.0724097 29.908722
-7.8581204 -0.54300505 27.97378
-8.070058 -0.5660857 28.737795
-7.97311 -0.54026926 29.360039
-7.7271585 -0.6160177 29.964876
-7.7127814 0.085992485 28.067772
-7.8620815 0.23290719 28.644154
-7.837256 0.21401678 29.278229
-7.632586 0.20129767 29.822145
-7.2459583 -1.8728831 27.944094
-7.383284 -1.8839651 28.463896
-7.5024824 -1.7353855 29.209951
-6.956477 -1.7777414 29.957006
-6.929969 -1.1553537 26.808193
-7.4135966 -1.3546392 27.623333
-7.5430484 -1.4700181 29.690392
-7.2836833 -1.1560221 30.251638
-6.9358068 -0.9985066 30.61707
-7.0960965 -0.8297317 26.933651
-7.447045 -0.27751428 27.457441
-7.409471 -0.4181092 30.360664
-7.043655 -0.6117871 30.656912
-6.7046585 -0.16139232 26.880934
-7.419494 0.22002287 27.719286
-7.4498434 0.5769911 28.356964
-7.467008 0.55104697 29.636898
-7.3077717 0.22885963 30.172895
-7.1823916 0.9681741 28.585371
-7.241979 0.91979754 29.312296
-6.9070797 0.79268 29.945091
-5.9903755 -2.8463058 28.846403
-5.950888 -2.6715329 29.305876
-6.2523255 -1.7976903 25.943151
-6.2632804 -2.0453403 26.460424
-6.2335415 -2.4273028 27.451485
-6.5284853 -2.417812 28.73651
-6.665633 -2.2442093 29.426807
-6.3758135 -1.8792126 30.109802
-6.1981273 -1.4648044 25.8436
-6.580959 -1.6901796 26.506483
-6.645259 -1.5044872 30.346619
-6.617118 -1.0981451 30.627527
-6.471019 -0.9316642 26.07986
-6.6721582 -0.47026837 30.692543
-5.8525357 0.20029485 25.94481
-6.1162243 0.55533296 26.62124
-6.742708 0.008929253 30.56848
-6.021704 0.70862985 26.664309
-6.314466 1.1567401 27.83116
-6.5180626 1.2499679 28.44403
-6.6173997 1.187304 29.428488
-6.373177 0.7405733 30.082113
-5.0574913 -3.0875626 26.905006
-5.479898 -3.1347852 28.044823
-5.5708823 -3.0100813 28.41019
-5.5537148 -2.828782 29.26372
-4.8472724 -2.1710086 24.907288
-4.9335823 -2.5381045 25.524796
-5.582601 -2.5000472 26.50033
-5.6829095 -2.4729884 29.636583
-5.7121315 -1.9484975 30.147991
-5.5323033 -1.5298407 25.175404
-5.472513 -1.4194665 30.42419
-5.845292 -0.990356 30.607807
-5.2247996 -0.4781754 24.958624
-5.6951413 -0.4168255 25.401613
-5.963327 -0.4559687 30.751015
-5.1648874 0.26073587 25.293037
-5.463625 0.4196414 25.90355
-5.275862 1.040473 26.553513
-5.707183 1.1419787 27.68957
-5.984363 1.3479664 29.377996
-6.02175 1.1246352 29.790894
-3.5494304 -5.874402 28.381657
-3.5234587 -5.289802 27.235693
-3.617329 -5.5459113 28.450119
-4.0786424 -2.9365778 24.790169
-4.364508 -3.3475888 26.203743
-4.7052603 -2.7625139 29.22622
-4.1953793 -2.2658417 24.049437
-4.3913445 -2.5065682 24.545818
-4.9978976 -2.5389633 29.611145
-4.7584577 -1.9420528 29.964441
-4.444716 -1.5631716 24.037521
-4.8261695 -1.2758034 30.296692
-4.1873364 -0.78141385 23.863733
-4.122669 0.04089111 24.178965
-4.1979036 0.21720728 24.473688
-4.0095835 0.76185006 25.112125
-4.2408957 0.967984 25.694532
-4.7096806 1.0929677 26.392756
-4.110735 1.5378573 27.2032
-4.02856 1.4369423 28.183168
-4.345118 1.4203353 29.577116
-3.77087 1.5179547 30.861914
-3.839918 1.7927976 27.480124
-4.090613 1.7451208 28.277594
-3.9434943 1.8026907 29.429386
-3.6129959 2.5189762 30.477386
-2.8164477 -6.962275 27.635965
-2.911738 -6.96931 28.376902
-2.6390548 -7.222256 28.917809
-2.8092895 -6.109036 25.790018
-3.0862386 -6.1824684 26.485445
-3.2103179 -6.3131223 27.440567
-3.1930451 -6.5016727 28.505499
-3.2333112 -6.2523713 29.054358
-3.0325408 -5.724367 25.810673
-3.3916373 -5.422145 26.467432
-3.4887562 -5.823787 28.501148
-3.2748322 -5.506322 29.34931
-2.962388 -5.4777117 29.709003
-2.8076334 -4.0229526 24.01805
-3.143783 -4.0652514 24.42365
-3.4674318 -4.761078 26.444677
-3.4182072 -4.6953664 29.147305
-2.9032812 -4.8381896 29.62075
-2.9054756 -3.3212702 23.48588
-3.6535807 -2.2794623 23.573254
-2.5805914 -0.8172127 18.765657
-2.6338687 -0.9071742 19.23954
-3.0702136 -1.3707842 23.043634
-2.620398 -0.36306894 18.66727
-2.6457682 -0.49342433 19.499115
-3.0066519 -0.51732343 22.882296
-3.559305 -0.31706876 23.600603
-3.0810735 -0.3313519 30.398642
-2.6017492 0.13157575 18.625048
-2.61965 0.21904978 19.224422
-3.4626048 0.40626204 24.058914
-3.5264668 0.5956396 24.296993
-3.367535 0.9082491 31.075184
-3.5459478 0.8278496 24.626167
-3.448475 1.6007246 31.19431
-3.1258597 1.5158633 32.202087
-2.721908 1.761044 32.863983
-3.295487 1.8008887 26.065702
-3.4189074 2.4935243 28.151947
-3.295241 2.2956738 31.424664
-3.0398536 2.4699914 32.295765
-2.761322 2.3080225 32.80886
-2.9829624 3.0101192 28.822414
-3.0253124 3.2957351 29.725374
-3.0411935 3.271635 30.46441
-2.9994724 2.995925 31.3552
-2.8658214 2.9004295 32.21955
-2.8101408 5.0058565 13.948742
-2.8358808 4.746079 14.570796
-2.824383 4.680902 15.398115
-2.8036222 4.801852 15.823468
-2.9338875 5.5946646 13.835367
-3.1345057 5.52093 14.42906
-3.0946403 5.56176 15.309266
-2.8389528 5.604898 16.016068
-2.8297558 6.188804 13.715946
-3.090459 6.381556 14.682828
-3.0211525 6.3569484 15.456721
-2.9626942 6.34681 15.816422
-2.6706975 6.8405766 13.8342905
-2.853189 7.014765 14.674912
-2.817784 7.192256 15.391048
-2.6835308 6.994787 16.11309
-1.9411502 -7.6181326 27.11387
-1.8294591 -7.7170334 27.578909
-2.1150403 -7.807383 28.470232
-1.8598104 -7.817943 29.309256
-2.0549994 -7.044738 25.762135
-2.2151322 -7.2527804 26.756351
-2.1138616 -7.5856066 27.62772
-2.4042232 -7.4907894 28.632286
-2.2339704 -7.466429 29.357227
-2.0998309 -7.225069 29.75529
-2.3011923 -6.1075563 25.044891
-2.4334426 -6.564404 25.722775
-2.386814 -6.6296206 29.826122
-2.376877 -4.5465903 23.95328
-2.4348764 -4.6528606 29.708538
-1.8726655 -3.269757 22.641308
-2.5237298 -3.5330236 23.427576
-1.9292933 -1.6576676 18.883265
-1.8767929 -1.8823009 19.669966
-1.6058025 -2.254448 20.646782
-1.7754714 -2.1406999 21.613117
-1.7449876 -2.6335542 22.505371
-2.0646062 -2.4575584 29.616295
-1.9510355 -1.1013635 18.163887
-2.3654196 -1.0753515 18.739168
-2.3855443 -1.1350255 19.638706
-2.0664914 -1.3081415 30.551151
-2.008983 -1.0559816 30.789259
-2.2244415 -0.4948822 18.115171
-2.4366229 -0.46066755 18.393084
-2.404976 -0.5175002 30.776026
-1.9368513 -0.12573966 32.06745
-2.251319 0.066843785 18.073309
-2.4714923 0.30977586 18.474798
-2.4927979 0.3398822 19.424967
-2.327804 0.4778939 19.921637
-2.3461437 0.00806649 22.06217
-2.5949728 0.52658916 23.452057
-2.0819747 0.76241875 32.87006
-2.143468 1.2843068 18.818947
-2.162106 1.2873496 19.449886
-1.8534746 1.173904 20.37677
-1.6464335 0.8500181 21.398806
-1.7923396 0.7906984 22.402424
-2.2024074 0.98369944 23.659819
-2.352072 1.732791 33.05628
-1.7766161 2.1482813 18.658903
-1.661204 1.9228755 24.762836
-2.3464408 2.3217103 25.70132
-2.3484967 2.3540192 33.035255
-2.263464 4.183685 14.646529
-2.3219366 4.1749163 15.315169
-2.3811774 4.268962 15.962275
-2.6480083 3.0667639 27.941593
-2.5346606 3.4623654 29.424017
-2.5222487 3.5091345 30.712603
-2.2874167 3.4938183 31.53582
-2.3837721 3.1742206 32.378418
-2.1520438 2.8019748 32.99045
-1.8356729 5.0314693 13.147151
-2.4543753 4.765585 13.750693
-2.4053404 4.394689 14.31691
-2.4199321 4.62485 16.114204
-2.4758549 3.5852144 29.192087
-2.4791462 3.6748264 30.616367
-2.0940468 3.7366848 31.22516
-2.379561 5.5139365 13.220655
-2.562333 5.345259 13.45792
-2.3649662 5.1755495 16.469017
-2.3138096 6.222002 13.173949
-2.6429513 5.99449 13.410027
-2.5274153 6.660951 16.44629
-2.2561884 6.4723334 16.735382
-1.7759299 6.9808397 13.179247
-2.0350757 7.2121463 13.566494
-2.6032395 7.1290555 14.293309
-2.4683945 7.2500877 16.296953
-2.0228522 6.9676323 16.84107
-2.213932 7.8512726 14.39298
-1.9071412 8.215932 16.144587
-1.7537653 9.656532 14.842787
-1.9161911 9.676924 15.503028
-1.6832325 10.438513 14.856133
-1.8081001 10.504489 15.445605
-1.7806609 10.345024 16.143126
-1.6332175 10.9145565 15.092917
-1.6642976 10.946258 15.539553
-0.5675086 -10.049707 22.056204
-0.607514 -9.916605 22.429796
-0.83842504 -9.123967 21.737185
-0.8358821 -9.397563 22.547915
-0.77096283 -9.407592 23.02516
-0.72091806 -8.405587 20.97579
-1.1032934 -8.412534 21.899849
-1.1563549 -8.370343 22.318861
-0.99212074 -8.532756 23.1546
-0.7812787 -8.059985 23.817572
-1.157552 -8.006489 27.14844
-1.4947773 -8.163153 28.634274
-1.4540352 -8.022603 29.455088
-0.73804176 -7.563861 21.007353
-1.0184863 -7.5678563 21.602982
-1.2318922 -7.774663 22.575483
-1.125419 -7.4153447 23.257807
-1.7662375 -7.2163167 25.86945
-1.5171375 -7.3073936 30.137812
-0.7767697 -6.6144753 21.50139
-0.99862367 -6.450532 22.446472
-1.2359755 -6.820261 30.347837
-0.69450283 -5.971876 21.787361
-0.9042607 -5.7004666 22.312658
-0.9129337 -5.8206306 23.353987
-1.3207854 -5.9525046 30.187166
-1.220701 -4.600385 30.395443
-1.0631227 -3.1877868 31.182482
-0.7405975 -3.1057682 31.740072
-0.90893036 -1.7068862 18.234917
-1.0732313 -2.3330612 19.054638
-1.5140162 -2.100778 19.604166
-1.3793604 -2.6713367 21.869564
-1.3470811 -2.4100208 30.642073
-1.455358 -1.1726401 17.986492
-1.5221475 -1.5756742 18.342623
-1.3112464 -1.3026731 31.135277
-1.471797 -0.5778592 17.762726
-1.6365393 -0.2577581 32.15412
-1.2555377 0.1079545 32.657303
-1.3283741 0.31370494 17.572445
-1.322432 0.682275 33.026302
-1.5499856 1.4427814 17.851355
-1.2146338 1.423623 21.79009
-1.0365412 1.5134883 22.16454
-1.5636255 1.4908243 33.339085
-0.62412125 2.938327 17.325489
-1.3444734 2.649408 18.282328
-1.516545 2.2897992 19.579327
-1.160965 2.0855837 20.114653
-0.7665051 2.052425 22.237627
-1.4765792 2.404213 33.307476
-1.0584581 4.3014894 13.085205
-1.2929147 3.924401 13.816228
-1.3684552 3.700296 15.475569
-1.3897524 3.7628224 15.9060955
-0.9301225 3.0132914 17.655527
-0.8419819 3.7561677 18.772152
-1.2064092 2.9201605 19.410303
-0.6521239 3.311012 23.456078
-1.5349338 3.141676 25.34833
-1.611125 3.4959576 32.571312
-1.4726256 3.1809218 33.014328
-0.7047472 4.8395042 12.050925
-0.7347659 4.3881187 12.615988
-0.78761804 4.891237 20.04755
-0.6774936 4.166383 23.723457
[...]
POINT_DATA 6709
SCALARS features_00 float 1
LOOKUP_TABLE default
0.7900845 0.748737 0.828436 0.84989274 0.83433175 0.78234833 0.8915006 0.9073485 0.8704606 0.7985386 0.88522995 0.9122489 0.8946314 0.6609107 0.73125505 0.77721184 0.7112689 0.5687468 0.6658338 0.7978375 0.7915638 0.7663413 0.59324384 0.67942226 0.85264874 0.8069316 0.56136596 0.7071765 0.8031486 0.8738917 0.87059987 0.77557516 0.82360226 0.82295614 0.5611938 0.56686187 0.44544 0.4444664 0.5197793 0.62666845 0.6545184 0.6417929 0.4660743 0.49869394 0.6957489 0.7254644 0.5076724 0.7866493 0.40427876 0.43225986 0.8300656 0.39939192 0.48183152 0.6146587 0.738179 0.7782283 0.33592367 0.5283691 0.5378783 0.5371454 0.31534088 0.29209962 0.37469202 0.5563646 0.5774969 0.43398622 0.5735005 0.6400347 0.3971633 0.4473141 0.7014061 0.3069037 0.32963157 0.25238883 0.2937507 0.5689988 0.6457706 0.4897822 0.3586771 0.49314278 0.1817432 0.12261565 0.45504406 0.24797197 0.23995778 0.49991786 0.46976584 0.37225515 0.46012056 0.34561256 0.23893037 0.23406911 0.17645973 0.18661267 0.2106719 0.14247784 0.14727284 0.14464653 0.5242274 0.12572226 0.15179567 0.23719554 0.4409919 0.4173264 0.4767997 0.5103985 0.2934671 0.34017524 0.40881807 0.49099147 0.52110183 0.2740696 0.30451903 0.50077283 0.52467203 0.50084835 0.038891662 0.06282001 0.21514125 0.43322414 0.41997615 0.044093497 0.2061181 0.6005273 0.5842087 0.29197127 0.6153407 0.5810671 0.20264223 0.23626041 0.051828228 0.6098044 0.5692309 0.16106267 0.14679125 0.50973356 0.121859744 0.5543518 0.5811771 0.6087376 0.085616626 0.13723868 0.5571981 0.59383786 0.60993195 0.1907284 0.29775113 0.3961503 0.52283347 0.58100486 0.6230079 0.67415893 0.66672003 0.6553415 0.60926026 0.6866782 0.6946499 0.6155226 0.5494674 0.67000216 0.6472697 0.604003 0.49248046 0.5997014 0.5729342 0.49718505 0.3371182 0.37002832 0.4690795 0.5383313 0.25910062 0.33165684 0.39383447 0.491718 0.53922397 0.5425329 0.19643031 0.2875951 0.52490115 0.0017678384 0.31944382 -0.053430393 0.015394304 0.5102389 0.42928323 0.22856286 0.043496665 -0.030796014 -0.1604909 0.564875 0.5804095 0.5318256 -0.06662935 -0.033932403 0.6050308 0.6136298 0.048744693 0.222203 0.6157806 0.61010396 0.5343188 0.42577457 -0.02575028 0.044273764 0.5180897 0.49899933 0.3795928 0.15544344 -0.07016305 -0.12710428 -0.06882787 0.6079366 0.40114942 -0.15257405 -0.088282295 0.61026084 0.60050845 0.6134471 0.6134191 0.0980223 0.25026077 0.40247113 0.49411535 0.5705968 0.5990203 0.45819733 0.5627121 0.6066922 0.6108726 0.21988642 0.38255122 0.44489235 0.50387686 0.54521877 0.53806174 0.45165974 0.51643014 0.46520317 0.39613098 0.32391813 0.35467842 0.5130919 0.42344475 0.274015 0.357624 0.38878486 0.46357667 0.5257658 0.55204993 0.5908058 0.5865089 0.59361184 0.61559546 0.52973205 0.51518726 0.5374749 0.5008726 0.4759047 0.5087109 0.5049603 0.47850055 0.43218026 0.29006535 0.24340856 0.47462368 0.5402589 0.43385434 0.44977725 0.42601472 0.33362317 0.23944163 0.50305796 0.3351399 0.29730117 0.40150273 0.26244342 0.20522843 0.12038389 0.32543862 0.1295284 0.037133034 0.1541424 0.4548345 0.40462437 0.39737213 -0.092873275 -0.082075335 0.5278034 0.50478286 -0.056326363 0.54704815 0.19354446 0.33446306 0.5181687 0.44311523 0.5152513 -0.121033035 -0.15197106 0.5470157 0.19644955 0.3549881 0.20558429 0.08042255 -0.18660791 0.57285357 0.3683393 0.4063927 0.48980585 0.4520771 0.2719138 0.18260755 0.1664917 -0.08206741 -0.08114019 0.55352396 0.5710862 0.39552492 0.3742195 0.17692843 0.14012364 0.20000964 0.28118354 0.0060072243 0.10176615 0.2569427 0.3464205 0.45406222 0.52913237 0.53116775 0.42835948 0.39817393 0.17809719 0.2567773 0.23388016 0.30772159 0.3088264 0.3339074 0.32530427 0.36445072 0.32732174 0.33728206 0.34044185 0.31753054 0.2736969 0.23824775 0.13976574 0.10660837 0.27559656 0.46831328 0.48600417 0.53776306 0.61259604 0.5397974 0.5363576 0.5736755 0.6193098 0.6536454 0.62819356 0.5859226 0.63586843 0.6039779 0.6105643 0.5865803 0.58284485 0.5477108 0.5196618 0.4978351 0.4865836 0.45281214 0.4949325 0.43710542 0.3661362 0.23726797 0.16081896 0.3246875 0.46175647 0.5383874 0.5576002 0.17495614 0.13389261 0.12825781 0.5110267 0.56514144 0.5693128 0.554078 0.5196754 0.50101984 0.45822036 0.114090286 0.13954349 0.46922845 0.55664366 0.5492294 0.539068 0.5381111 0.5140641 0.47404003 0.05767592 0.04749194 0.09710275 0.41949013 0.5390892 0.54998535 0.4469222 0.34594637 -0.09553033 -0.085043766 0.41686472 0.47818473 0.28319076 0.4951418 0.4700877 0.33075446 0.36021596 0.0031982437 0.4490439 0.1618753 0.3119226 0.11816047 0.20150112 0.20884477 0.34553048 0.40775263 0.006736302 0.41591042 0.3436572 0.26445088 0.34600055 0.39075017 0.37292063 0.17703551 0.29939705 0.44063568 0.04558304 0.461429 0.44340804 0.24302201 0.42408228 0.29603836 0.3692624 0.4381866 0.41901162 0.28007743 0.19815074 0.09321079 -0.13348463 0.4584255 0.46319717 0.40890062 0.36365616 0.3212307 -0.11061336 0.02891239 0.49997914 0.4857794 0.43615124 0.3916756 -0.0038445592 0.3460126 0.49467057 0.51075554 0.5187728 0.5043491 0.026254289 0.1310397 0.16722399 0.029310703 0.5197031 0.49676496 0.28282762 0.27515173 0.21881054 0.3410209 0.34833908 0.3342154 0.30103365 0.18837652 0.4869071 0.44333002 0.33786502 0.20674181 0.34988496 0.33231276 0.244948 0.034897495 0.23273976 0.37618944 0.4242226 0.5113891 0.5127149 0.5229678 0.5898319 0.553667 0.50262034 0.54152256 0.59870327 0.62755406 0.60084844 0.5653786 0.59973633 0.6300073 0.53821015 0.59718955 0.6185178 0.5918137 0.490578 0.4962811 0.5789358 0.5155174 0.44708553 0.38049012 0.4438523 0.3154433 0.49783978 0.51343447 0.5095285 0.28698438 0.32388002 0.36708444 0.5396959 0.52823806 0.21600778 0.19619429 0.17126334 0.52254564 0.50334376 0.046828166 0.1497398 0.45950603 0.51795685 0.013899531 0.38030714 0.3220485 0.36552197 0.50582075 -0.12528251 -0.08079369 -0.15561423 0.2001138 0.40108392 -0.17490707 0.33542895 0.2394571 0.3767932 0.120920405 0.12938438 0.27066776 0.047199506 0.022026546 0.4195621 0.41752946 0.42144662 0.41533726 0.39155284 0.4018628 0.2655063 0.26397136 0.2633467 0.08510335 0.2000396 0.19616091 0.30305028 0.3141859 0.13484906 0.33165464 0.32009116 0.21542674 0.17898153 0.13484418 0.36017275 0.36905813 0.42591053 0.3261239 0.41243896 0.49129078 0.4883162 0.34947515 0.49629202 0.46363485 0.50506264 -0.1487619 -0.014375117 0.4965191 0.51437867 0.17822751 0.095015794 0.2624317 0.4802823 0.054398384 0.027529564 0.2290308 0.28652406 0.25824866 0.4291045 0.34088033 0.22378077 0.12306568 0.50702435 0.56860167 0.06873535 0.3286004 0.63506436 0.6695212 0.03017449 0.43521795 0.7168511 0.395089 0.54853 0.42622626 0.46813077 0.51509976 0.5641033 0.5620932 0.55601645 0.47682384 0.5319035 0.550667 0.5740544 0.5367037 0.4644421 0.5276916 0.5770165 0.60134625 0.5364182 0.44145355 0.5004262 0.5114293 0.4396103 0.39320844 0.45198315 0.30946478 0.17502378 0.28095123 0.32359964 0.40552068 0.46454045 0.2412257 0.4742214 0.107564 0.49011976 0.3858183 0.30293864 0.32772374 0.37486053 0.13081104 0.14725082 0.36284286 0.08431589 0.0738187 0.45341274 0.41175774 0.0406024 0.06640165 0.42849678 0.28287742 -0.0064790472 0.17038074 0.31445962 0.1815321 0.16681829 0.17983232 0.09622368 0.37832028 0.15141197 0.034531616 0.39952558 0.25830236 0.123216756 0.34785748 0.38838863 0.25191072 0.2748162 0.33166578 0.04449989 0.15606168 -0.20196052 0.20566255 0.0939954 0.040147036 0.21258637 0.27913475 0.12190753 0.12132778 0.2944754 0.40739912 0.30061275 0.18604223 0.14956266 0.20351815 0.47786087 0.43971932 0.3763772 0.045167714 0.42355162 0.3703492 0.46294546 0.46711355 0.06261455 0.37975997 -0.18940522 -0.19500822 0.14997311 0.08441286 0.17850278 0.4036379 0.36990887 0.3549977 -0.2636234 -0.18072125 -0.120602414 0.13377376 0.1769703 0.12523773 0.08482408 0.37092012 0.49543765 0.5488639 0.27207652 0.17785424 -0.05520767 0.51323104 0.66251373 0.69796103 0.17835318 0.6772553 0.7518128 0.7538841 0.7285495 0.4621536 0.766769 0.76424205 0.74064934 0.28289762 0.35936502 0.48087823 0.5231379 0.35119623 0.406861 0.41658524 0.50189763 0.5108945 0.507853 0.48687822 0.36630827 0.48794967 0.44118905 0.44819224 0.36213386 0.31569168 0.21100628 0.17086893 0.18518358 0.11479974 0.547278 0.569062 -0.055911906 0.2636442 0.5325033 0.58326167 0.35099286 0.51183003 0.037315983 0.198423 0.016047917 -0.025839169 0.47161594 0.4355325 0.13856757 0.10274201 0.19133317 0.46682477 0.47515795 0.1456914 0.25759512 0.44237852 0.44523275 0.33523488 0.33208862 0.3861503 0.33804154 0.29977807 0.33004385 0.36112794 0.32870993 0.41594246 0.29394847 0.48663342 0.45239002 0.10165823 0.26493704 0.46845084 0.44625413 -0.03889506 0.025064252 -0.22814617 -0.019548781 -0.24049652 0.00974942 -0.048264485 0.14804375 0.15073702 0.295914 0.3624038 0.23917675 0.24302459 0.34807813 0.3853494 0.04642145 0.28012037 0.38920408 0.33388928 0.14103372 0.20188616 0.344615 0.33587182 0.2976383 -0.16127625 -0.14417906 -0.08765368 0.0111353975 0.5593101 0.24335639 0.086905636 -0.20370781 -0.21620491 -0.14414965 -0.09577753 0.118249595 -0.0062993765 0.37089252 0.6377262 0.6120755 0.09914102 0.23159322 0.42468333 0.69149816 0.6242833 0.1535084 0.33427066 0.658833 0.74341214 0.7401147 0.6977858 0.15945673 0.21219927 0.3719699 0.22238162 0.3150065 0.32992166 0.3827951 0.43687817 0.3694045 0.29686812 0.3727886 0.1507669 0.22623104 0.021867126 0.11218845 -0.10879102 -0.052468136 0.053332657 0.16593666 -0.0022862628 0.61693114 0.651175 0.25953886 0.087006055 0.5360622 0.60825026 0.6438818 0.683799 -0.05003872 0.6166585 0.65016353 0.65165377 -0.19914988 0.56590974 0.57732403 0.5984778 -0.213283 0.34655657 0.47349066 0.47279227 0.45548314 0.32569027 0.15913814 0.19658545 0.46064556 0.46862096 0.24459447 0.28401673 0.24567814 0.42916292 0.28456724 0.33178407 0.29691297 0.32544824 0.29558972 0.27873725 0.36442503 0.116621636 0.43925983 0.41568547 0.19632623 0.48001236 0.51384777 -0.17804685 0.4676463 -0.32437366 -0.20389648 0.04594754 -0.28893277 -0.37044132 0.082387775 -0.1337032 0.25552642 0.306908 0.07593202 -0.0011349842 0.452694 0.37836027 0.28193083 0.38044316 0.42596245 0.4713618 0.35685524 0.13509884 0.27113807 0.35189444 0.51165473 0.35544652 0.4519673 0.33453593 0.5483085 0.43507642 0.35146904 -0.18113542 0.58440423 0.23705429 0.22940013 -0.15696724 0.03389404 0.19502483 0.26080334 0.27004036 0.11313602 0.6358568 0.61499405 0.24061921 0.24230921 -0.07890184 -0.108251095 0.16570708 0.28941128 0.31400883 0.27725422 0.3463488 0.5695709 0.6808155 0.6794856 0.6466564 0.25240776 0.23251656 0.20212844 0.19459517 0.30187094 0.29003948 0.3727626 0.19652578 0.20960745 0.1540749 0.4225021 0.42701447 0.4680571 0.45592415 0.397833 0.4372216 0.38873777 0.28301084 0.21886095 0.19155142 0.06438551 0.16481462 -0.02323921 -0.08663122 0.09380415 -0.12374228 -0.07168781 0.0464001 0.3544879 0.22528854 0.34842253 0.5360239 0.63828355 0.6888143 0.6923857 0.4422599 0.38710657 0.69445455 0.43854225 0.30796754 0.6852705 0.6584775 0.4680571 0.35654795 0.60405564 -0.20352614 0.5073461 0.36794248 0.24814215 0.28861845 0.44559753 0.30536735 0.35241106 0.3977459 0.29120994 0.2913832 0.32317537 0.26669362 0.20701347 0.2922833 0.059269533 0.09639368 0.35305595 -0.20032683 0.4348377 0.39898366 0.03820765 0.48046678 0.5016757 0.47256666 -0.07682279 0.07202133 0.45576832 -0.37604105 -0.3031098 -0.3241845 -0.035608027 -0.36525977 0.037796468 0.21503748 -0.30921897 0.33635154 0.45268166 0.4113582 -0.014062684 -0.040739946 0.43299252 0.48644966 0.4551221 0.56354266 0.52021116 0.37153706 0.40823555 0.5750091 0.5534229 0.52788866 0.52658844 0.47177106 0.37367356 0.5480503 0.23182659 -0.17096344 -0.09883572 -0.03917198 0.55847394 0.58727884 0.24764386 -0.11273161 0.20852278 0.2699601 0.07293991 0.023102894 0.49206161 0.5580362 0.57687306 0.2676801 0.26821154 0.0040973723 0.009526055 0.25459087 0.31255537 0.11949814 0.081962004 0.32505235 0.370629 0.15759397 0.014377136 0.38085115 0.4472436 0.5143949 0.48366416 0.3553175 0.53467435 0.56309795 0.5532123 0.44252712 0.4827641 0.39955327 0.11181187 0.18817717 -0.105904855 -0.15259069 0.075080246 0.0755979 0.15916352 0.35473698 0.27659974 -0.16891956 -0.15117754 0.13447239 0.1339291 0.44273764 0.39149886 0.29850236 0.43248075 0.57090324 0.64315057 0.63951 0.5085061 0.4776197 0.63137764 0.65271634 0.51781696 0.49488783 0.6384732 0.51211536 0.4862699 0.6018779 0.3596693 -0.22509772 0.31964955 0.37397286 0.27577433 0.36668628 0.2813003 0.31915954 0.33868957 0.20031342 0.12618235 0.29650012 0.22694424 0.20489305 -0.12494901 0.3417443 -0.19258465 0.41911295 0.017711535 0.0050846413 0.4279191 0.07008241 0.4038329 0.07735991 -0.09680392 -0.38926083 0.07173677 0.11285174 0.20685154 -0.35335958 -0.10536491 -0.3375397 -0.29540557 0.2302568 0.46182477 0.4451341 0.26949337 0.16054638 -0.061069008 -0.08271753 0.35869887 0.48424718 0.40390885 0.54455966 0.5033074 0.30462527 0.3656911 0.572608 0.20894584 0.2177143 0.55780536 0.25025705 0.527896 0.49558324 0.42498606 0.5006785 0.41166553 0.31110835 0.45974404 0.48371434 0.19526938 0.029424991 -0.12212103 0.15648524 0.011556119 0.33804286 0.23592985 0.24741453 0.05033041 0.11548261 0.13126093 0.18459663 0.17776096 0.095947005 0.021087382 0.24989647 0.30478227 0.20042965 0.0153221525 0.12070838 0.24919325 0.22937123 0.35712212 0.47115105 0.51915836 0.47350454 0.40869516 0.52963245 0.49757174 0.6134269 0.60879207 0.56964654 0.60068214 0.60208434 0.60031784 0.5720625 0.44788337 0.40307885 0.20790897 0.3293426 0.3985093 0.30716002 0.026981477 0.12316984 0.16753322 0.21421416 0.41231465 0.35376716 0.04478638 0.45603245 0.26801556 0.4558104 0.5616375 0.5644848 0.52548057 0.5102354 0.43855494 0.49084538 0.53138685 0.39942312 0.54933715 0.5348797 0.4074303 0.41882277 0.42336112 0.17130972 0.35151476 0.13200904 0.24137928 0.30445158 0.14309601 -0.025530454 0.17215061 0.20164052 -0.12191742 0.33981454 -0.07609323 0.34420833 0.0441819 0.3044886 -0.0121738445 0.058459345 0.36300567 0.3209317 0.1874455 0.069901064 0.3190726 0.17901856 0.17312069 0.14241393 0.20762403 0.14786093 0.17878689 -0.37113166 0.16799104 -0.10790927 0.101119876 0.3601497 0.25953338 -0.03490487 -0.091952875 0.06649454 0.4415605 0.3285947 0.46253952 0.18788484 0.55249536 0.15915687 0.54194915 0.51806086 -0.04200426 0.43991178 0.11669979 0.31059647 0.2997251 0.10451268 0.3957994 0.16028753 -0.27859822 0.168789 0.21222478 0.136735 0.09585607 0.11359123 0.10962184 0.08286559 0.20569861 0.22303875 0.14461182 0.1898391 0.21539138 0.2832057 0.179214 0.43002933 0.45719925 0.4361953 0.26628745 0.28266978 0.33081225 0.24915391 0.6205212 0.5185381 0.6084462 0.6242435 0.62123185 0.5993061 0.44811067 0.27267003 0.2713942 0.45475549 0.19185 0.3470775 0.41539592 0.4587881 0.3126997 0.24815452 0.22987118 0.30974686 0.35902643 0.41447997 0.3458789 0.457291 0.13174549 0.5289382 0.51110303 0.2993742 0.5486318 0.25253716 0.54428315 0.51754564 0.0028219596 0.1176556 0.2445045 -0.11123314 0.41219723 -0.058135584 0.49002022 0.34373766 0.1064107 0.04378327 0.19526051 0.033034053 0.14523941 -0.1791082 -0.06824749 -0.2611506 0.537294 0.5329745 0.4933458 0.25246483 0.49775422 -0.0854605 0.019890293 0.5016531 0.4026848 0.08899609 0.035146423 0.4470901 0.354836 0.117653735 0.09007205 0.22493556 0.10241172 0.051191486 -0.20985395 0.09703121 0.22626087 0.30742592 0.2379204 0.0039475895 -0.07504027 -0.12120782 0.30416986 0.3956639 0.37862772 0.2626325 0.38040948 0.4122612 0.37126565 0.37706658 0.0122751 0.3720504 -0.28907457 -0.109095 -0.07630663 0.15573998 0.08619028 -0.37019044 -0.06831694 -0.16447812 -0.22623867 -0.024975419 0.14644475 0.15560535 0.10209625 0.19555229 0.17793307 0.16793187 0.046776004 0.03917627 0.09787016 0.06547004 0.12648821 0.20692572 0.21723382 0.17779168 0.15460014 0.15970957 0.2195698 0.31287032 0.31764525 0.2983935 0.30704737 0.32127893 0.2608456 0.32366136 0.34737706 0.35348243 0.37899858 0.18278578 0.28562248 0.385827 0.39536846 0.61067104 0.6247757 0.5980532 0.5749668 0.49523336 0.5633664 0.5389587 0.49325848 0.56055075 0.59647125 0.40114 0.43282777 0.34061724 0.3671279 0.48057982 0.5660379 0.53724486 0.27455142 -0.08945191 0.491305 0.3605899 0.199646 0.380272 0.4900368 0.03163951 0.5365598 0.46752042 -0.026741777 0.46304893 0.01248535 -0.042388387 -0.058074836 0.13858333 -0.05489572 -0.05377017 -0.0011263117 -0.005089402 0.11774806 0.08288564 0.10072613 0.17985621 0.11930102 0.08546863 0.14351878 -0.2763145 -0.17943245 0.080292076 0.20594238 0.55848825 0.5633315 0.6251129 0.32286942 0.21469381 0.14789101 0.2810988 0.345284 0.4080227 0.53615284 0.5174618 -0.13615698 0.10120627 0.28650808 0.40532228 0.44653088 0.5582727 0.5445478 0.5247827 0.057183072 0.24756837 0.437454 0.46278435 0.54191273 0.5312358 0.52222997 0.40488642 0.014131086 0.08083011 0.2077027 0.20402458 0.10259852 0.39522022 -0.00063481927 -0.15489502 0.35899732 0.48346937 0.41372854 0.18481447 0.42250338 0.423638 0.4521712 0.45389527 0.43736708 0.46243083 0.30422148 -0.029925589 0.27919284 0.33761737 0.37622964 0.33507702 -0.19562192 0.21120065 0.28699505 0.32617468 0.058884688 0.0037729312 0.22206815 0.033762455 0.12458171 0.14225027 -0.28240785 -0.052339092 0.018163543 0.115996204 -0.21603417 -0.4611302 0.12246215 0.1405464 -0.3311062 -0.29193592 0.13978952 0.17804697 0.14396933 0.14425081 0.13936317 -0.042046137 -0.043218255 -0.17765357 -0.016620424 -0.14133346 0.047400016 0.26149032 0.11826572 -0.20167767 -0.04901713 0.09378446 0.14564976 -0.14161398 0.3304444 0.4408091 0.38862133 0.24883404 0.40111962 0.53826433 0.49127418 0.41379023 0.20645475 0.06719822 0.14632139 0.272978 0.36762357 0.41525722 0.4184813 0.48392057 0.5122376 0.4292677 0.26195848 0.15399772 0.24904951 0.35757208 0.39272666 0.6279549 0.569664 0.5028287 0.5990461 0.58983886 0.5291393 0.52745473 0.6615918 0.6556087 0.6788547 0.35709664 0.4298804 0.2716222 0.6675792 0.6245241 0.2915197 0.03418707 0.49080405 0.30399105 0.22511955 0.2834908 0.25540626 0.198946 0.23398101 0.272223 0.15615027 0.2345843 0.33721212 0.124694966 0.09628552 0.061542492 0.0697159 -0.02875238 -0.013281383 0.03754232 -0.02867674 0.07283324 0.02807431 -0.020929005 0.39665776 0.07030493 0.40377462 0.37827188 0.07609327 0.29462543 0.34605882 0.22907498 0.2535138 0.14999363 0.27127957 0.2996859 0.58967894 0.65198565 0.7350382 0.75415826 0.39175195 0.40871757 0.5691153 0.5632577 0.38317004 0.43345413 0.4153754 0.5671618 0.5692562 0.43038893 0.4101641 0.564731 0.37709454 0.5426359 0.18739451 0.3099678 0.3197706 0.35436913 0.2336109 0.4741782 0.31640875 0.3305352 0.5298521 0.40554425 0.49574506 0.5156085 0.4658769 0.44560444 0.43850428 0.3388256 0.39699402 0.4514777 0.40631914 0.22765656 0.30003065 0.36300275 0.39494973 0.0975545 0.34610426 0.17707688 0.1921141 0.28434384 -0.19097765 -0.11699368 0.005824439 0.132405 0.17388998 0.23600459 0.16758594 -0.0558368 -0.07828208 0.097012654 0.15827861 -0.4167435 0.11114384 0.16315204 0.14547239 0.197525 0.16732633 0.18255794 0.03557921 0.03575153 -0.077422105 -0.035951953 0.29164538 0.25244492 0.12532422 0.07208534 0.0033545713 -0.056534838 0.3225243 0.33367684 0.06402959 0.37544388 0.37460667 0.42042106 0.24042445 0.1371451 0.16426016 0.25200364 0.30559415 0.36635453 0.36475182 0.4306226 0.4571495 0.36452085 0.32111633 0.17331645 0.36527604 0.33742064 0.526272 0.6463189 0.7177067 0.7096452 0.43611035 0.48635703 0.46954346 0.4215072 0.10065038 0.40276527 0.5237344 0.6788674 0.624543 0.19697845 0.3330601 0.02568759 0.08151767 0.048622556 0.48178095 0.33577242 0.1521605 0.36921582 0.06315259 0.37421936 0.31557247 0.25917563 -0.54468536 0.24320474 0.30325896 0.22440018 -0.041536584 0.26179564 0.27892464 0.11815613 -0.017448463 -0.04190868 -0.4956777 0.18449026 0.04769628 0.3291037 0.36934578 0.38439283 0.1345518 0.38680658 0.118927255 0.35201612 0.12569271 0.29580966 0.084655374 0.35386887 0.62433445 0.66253245 0.7145258 0.7471132 0.35782704 0.5881912 0.60641587 0.60558414 0.44955856 0.37221235 0.5794432 0.5821084 0.031145465 -0.11904105 0.37421584 0.58024883 0.57286644 -0.26847032 0.35003197 0.33619434 0.5719931 0.31129164 0.19933082 0.24841909 0.50041956 0.13327083 0.24818806 0.5344946 0.5190259 0.4112084 0.379987 0.538360