# vtk DataFile Version 2.0
Really cool data
ASCII
DATASET POLYDATA
POINTS 2241 float
-3.6022038 -5.8610477 2.1994011
-3.6781478 -6.020676 2.6359112
-3.6934474 -5.954834 3.284251
-3.8583915 -5.459661 2.6736736
-3.903801 -5.4110427 3.4770112
-3.750505 -5.239859 3.9688268
-3.814396 -4.667229 2.741755
-3.907311 -4.6844435 3.4862204
-3.745896 -4.7023773 3.9715765
-3.675662 -4.226744 2.9009113
-3.6762803 -4.1507516 3.389653
-3.7686174 -0.8460462 -5.6032453
-3.7144673 -0.24629143 -7.116205
-3.9103932 -0.29090768 -6.5634227
-3.952855 -0.33299178 -5.6197877
-3.7113087 -0.28110677 -4.855633
-3.8263237 1.0447273 -8.135994
-4.1052685 0.9416895 -7.4735136
-4.0485845 0.44024056 -6.5213175
-4.020131 0.3299509 -5.648428
-3.7660027 0.35308886 -4.948773
-3.951795 1.4877468 -7.981204
-4.129515 1.475849 -7.439196
-4.1398745 1.5899125 -6.6130853
-3.8199272 1.4064703 -5.5809436
-3.714469 1.0462115 -5.1980305
-3.8529072 2.047296 -7.8278265
-3.9144795 2.188058 -7.4279532
-3.871308 2.327599 -6.637649
-3.7594807 2.203388 -5.8674126
-3.0658908 -6.6511183 2.6815114
-3.0817704 -6.604868 3.197096
-3.1170204 -6.207839 1.9119763
-3.4368052 -6.340512 2.5020812
-3.3020134 -6.271378 3.3701391
-3.1864772 -5.9585 3.9350166
-2.5220556 -5.1200423 -6.1577263
-2.5259314 -4.981922 -5.8773746
-3.4218605 -5.553394 1.8680772
-3.3834465 -5.366137 4.193495
-2.6094084 -4.383712 -6.2430944
-3.1503434 -4.713065 1.7241855
-3.5350425 -4.43633 2.3043478
-3.3541684 -4.5218816 4.2360654
-2.646874 -3.8722832 -6.745913
-2.5739453 -3.9617162 -5.8282137
-2.8199916 -4.0192614 1.8734436
-3.1971216 -3.7999237 2.6516974
-3.3040898 -3.8194728 3.508403
-3.0675313 -3.9539158 4.0794683
-2.9634774 -1.6910977 -5.4009733
-2.7471457 -3.3044918 3.35455
-3.0993807 -1.0331233 -8.4600115
-3.0022514 -1.4277933 -7.3436203
-3.3557763 -1.3696496 -6.697883
-3.4721687 -1.3200108 -5.6312485
-3.3001294 -0.8731692 -4.7532806
-2.8319745 -0.3595986 -9.0452175
-3.5534835 -0.23860417 -7.8119454
-3.3906274 -0.39457878 -4.595196
-3.3824334 -0.059552196 -4.3439646
-3.1654441 0.64196086 -8.836533
-3.5244198 0.977469 -8.476038
-3.2950237 0.55496275 -4.5538363
-3.0404975 1.4184315 -8.924997
-3.630036 1.4878925 -8.366945
-3.2839963 1.3482571 -4.9786096
-2.7915335 2.2282922 -8.656797
-3.423317 2.4230015 -8.054388
-3.5846632 2.6637394 -6.3140826
-3.4141862 2.4087627 -5.5656357
-3.1398087 2.2235653 -5.266618
-3.2144377 2.9037151 -7.4311624
-3.323133 2.963217 -6.5578265
-3.2133858 2.882959 -5.8910027
-2.4731264 -6.752035 2.0301878
-2.612676 -6.7822495 2.41692
-2.4725802 -6.620958 3.237305
-1.6758456 -5.9096045 -7.0645967
-1.9459977 -5.845243 -6.795221
-1.8634998 -6.072132 -5.917128
-1.8338984 -6.1399274 0.91166526
-2.7321496 -6.470589 1.8726422
-2.8487105 -6.5420513 3.3029852
-2.6836834 -6.124365 3.9855852
-1.6939268 -5.184613 -7.9124193
-2.0938544 -5.267767 -7.1564074
-2.2886977 -5.3866544 -6.3704023
-2.378054 -5.131361 -5.637473
-1.7904724 -5.276658 0.7119707
-2.748505 -5.3521557 4.501398
-2.6280339 -5.1646843 4.529684
-2.3308213 -4.4816685 -7.2854176
-2.4834528 -4.7577963 -5.710268
-1.9858419 -4.2898784 -4.938098
-1.8090966 -4.7598333 0.8159924
-2.5238032 -4.3379903 1.3994012
-2.79457 -4.4790454 4.448868
-2.2277257 -4.565348 4.6077986
-1.6332327 -2.9724386 -9.024135
-1.9814545 -3.456379 -8.135534
-1.9953029 -3.4759197 -5.149308
-1.992708 -3.8270462 1.3777138
-2.294501 -3.5991373 4.2942104
-1.909228 -3.8573291 4.554896
-1.944682 -2.052884 -8.98546
-2.4680536 -2.8301008 -7.0377975
-2.1232526 -3.1276832 2.1151683
-2.2007954 -2.9187229 3.4658084
-2.1383202 -3.0907178 4.013406
-1.6816001 -1.711802 -9.781473
-2.575848 -0.9723921 -4.5291524
-2.6374066 -0.78158754 -4.4296308
-1.9212317 -0.6003936 -9.949166
-2.3890886 -0.32074454 -9.563539
-2.4410298 -0.5149262 -4.3168616
-2.070827 0.3873441 -10.12575
-2.674989 0.3823253 -4.3040595
-1.8786228 1.2785072 -10.138672
-2.0411408 2.1739182 -9.207428
-2.3387003 2.0102859 -4.9539003
-2.7034354 3.2918088 -7.002931
-2.2469656 3.3843427 -6.725797
-2.7078946 2.8862295 -5.7144647
-0.6052357 -11.862024 -4.4201365
-0.638909 -11.524174 -5.0266104
-0.7789356 -11.406231 -4.4730883
-0.5970091 -11.363723 -3.708979
-0.7242115 -10.051793 -5.5635195
-1.0686402 -10.357439 -4.326399
-1.1095295 -10.156901 -3.915868
-0.7789519 -9.841858 -5.413867
-1.0621017 -9.623687 -4.5898395
-1.0345206 -9.705813 -3.749124
-0.6738957 -8.746094 -4.999059
-0.97769433 -9.135675 -4.23241
-0.8328397 -8.78097 -3.269833
-0.6040908 -8.796835 -2.5952382
-0.6332218 -8.624997 -2.1017334
-0.7025863 -6.960403 -6.604653
-0.56451833 -8.005612 -2.232691
-0.8246312 -7.0284624 1.5056795
-1.5532283 -6.808188 2.4025095
-1.1816702 -6.345429 -7.0833626
-1.2932504 -6.455399 -6.7726994
-1.1623738 -6.168757 -5.2914915
-1.1815008 -5.814452 -4.916669
-1.7527413 -6.4364696 3.5468678
-0.8831595 -5.0715623 -8.839811
-1.2323431 -5.3719687 -8.339647
-1.5028592 -5.703175 -7.7754054
-1.0762925 -5.551178 0.15322879
-1.6342567 -5.5561047 0.6311838
-1.2439729 -5.4381557 4.305981
-0.8917994 -4.5200686 -9.050381
-1.4104147 -4.635647 -8.4784155
-1.4628631 -4.3168893 -4.6113057
-1.4852825 -4.5452423 0.51309544
-1.3473318 -4.779367 4.4479704
-1.7271115 -4.5835414 4.605084
-1.3299767 -3.1132824 -9.332385
-1.6712686 -4.00274 -4.7685733
-1.4230603 -3.6528056 1.0298421
-1.4546894 -3.4710593 4.4667006
-1.404064 -3.7218988 4.5975122
-1.1871177 -2.2927747 -10.026853
-1.4024215 -3.3341532 1.3696706
-1.5350661 -2.6798697 2.7155433
-1.3859919 -2.5625215 3.5164237
-1.4019701 -2.8396087 4.085966
-1.1254091 -1.5678009 -10.134753
-1.2163062 -2.4984612 3.3014772
-1.297312 0.5946912 -10.713911
-1.6011258 0.65338176 -10.5525255
-1.5156547 0.41266966 -4.5185757
-1.0863018 1.1058729 -10.816049
-1.2101504 1.5894991 -10.502824
-2.0101323 0.9947324 -4.469415
-1.1518236 2.0406651 -10.234547
-1.1471348 2.6791005 -5.323868
-0.69090843 3.6422596 -8.934335
-0.78005815 4.3220086 -8.877286
-1.2389948 4.66292 -8.3085785
-0.97468567 4.6243987 -6.74232
-0.9084364 4.01051 -6.23951
-0.7545239 4.8425713 -8.765692
-0.87243295 5.144169 -8.296364
-1.0009546 5.159453 -7.6030807
-0.8399881 5.146682 -7.0521774
-0.08491373 -12.26019 -5.316068
-0.36909267 -12.28132 -4.3419538
-0.18538833 -12.208773 -3.88607
0.2450469 -11.842484 0.86883736
0.19832881 -11.859845 1.845405
0.3066908 -11.866788 2.1427853
-0.092179924 -10.871054 -5.9067593
-0.43786427 -11.50313 -5.2889996
-0.44499853 -11.511319 -3.5558357
0.1345801 -11.086117 -2.8668525
0.10043928 -11.355779 0.85144
0.007729113 -11.450663 1.4615407
0.13421339 -11.416707 2.1114626
-0.22157764 -10.186635 -6.0760403
-0.57437086 -10.3028555 -5.616959
-0.55347556 -10.216244 -2.9720936
0.19096231 -10.863288 0.53452134
-0.08146474 -10.868712 1.6771791
0.166118 -10.755261 2.1689117
-0.43831274 -9.95516 -5.843977
-0.2441274 -9.669168 -2.4281387
0.15665442 -9.397049 -0.21064222
0.1590271 -9.356629 0.3842602
0.30111444 -9.770189 1.3398244
0.21068713 -8.968758 -6.1364994
-0.07989189 -8.187724 -0.39832
0.20795208 -8.508744 0.6775478
-0.55510277 -7.0782633 -6.959032
-0.37068132 -7.502009 -6.6354923
-0.2261849 -7.0354977 -4.9338827
-0.37551042 -7.514331 -2.8469093
-0.4273372 -7.713226 -1.84068
0.15502635 -7.701291 -0.30317122
-0.04149151 -6.8233724 3.244042
-0.4516821 -5.816291 -8.720289
-0.30169812 -6.6236744 -4.562997
0.2964952 -6.9103165 -3.869561
0.22154036 -7.2014985 -1.3912809
0.16373858 -6.131576 -0.3750289
-0.82384837 -6.5472374 3.2867618
-0.12536803 -5.333211 -9.054556
-0.1695697 -5.4191723 -0.12128186
-1.0381722 -5.1624665 4.413512
-0.285313 -3.8367202 -9.843108
-0.45344138 -4.606035 -9.319432
-0.19677323 -4.3997364 4.413257
-0.56299585 -3.1237426 -10.129167
-0.55757356 -3.3639793 -4.488303
-0.15130311 -3.6178231 -4.3237424
-0.39281476 -3.486129 0.64737856
-0.7510887 -3.3255405 4.368728
-0.43931642 -2.611519 -10.360878
-0.8688204 -3.1571178 1.1351542
-0.57619333 -2.6449943 2.587136
-0.6170795 -2.608049 3.4382558
-0.8287857 -2.9095888 4.1552644
-0.6387028 -1.6257963 -10.483774
-0.52165055 -0.3059042 -10.735814
-0.3327306 -0.056166805 -4.4811954
-0.6592252 0.42174566 -10.915185
0.14540471 0.7712944 -4.231225
-0.7692759 1.4104108 -10.755202
-0.35853735 1.7727051 -4.9936757
0.06150344 2.2261279 -10.766161
0.10853997 3.1787014 -10.157822
0.087733984 3.7960446 -5.177074
-0.32914284 4.292231 -9.299032
-0.18780008 4.349919 -5.551351
0.06465015 4.2568517 -5.3245544
-0.13242298 5.1309905 -8.954667
-0.3882368 5.443593 -8.415674
-0.60353386 5.48519 -7.6271634
-0.43891305 5.257362 -6.7829895
-0.25059527 4.92513 -6.0415583
-0.18556096 5.639541 -8.164159
-0.20745471 5.6578555 -7.647421
0.057117056 5.616726 -7.0578313
1.3715794 -15.262512 -7.971836
1.1735038 -15.117881 -7.5515547
1.271275 -15.049853 -5.1574187
1.2982068 -14.999028 -4.6149344
1.3037305 -14.280527 -9.092546
1.0991954 -14.278194 -8.624025
0.9701821 -14.656665 -7.431567
1.0781834 -14.491879 -5.51844
1.0901339 -14.457308 -4.41679
1.2659193 -14.385219 -4.0819216
1.3387208 -13.225448 -9.744133
1.1602385 -13.439777 -9.387326
0.93875396 -13.5775 -8.568178
0.9930595 -13.688729 -7.931855
0.57845837 -12.732218 -3.6874044
1.0408393 -12.585544 1.294258
1.3410757 -12.880037 -9.70984
1.1673491 -12.6387205 -9.41245
0.9742909 -12.657495 -8.659588
1.0943574 -12.553637 -7.9759965
0.79629827 -12.13487 0.5994746
0.6082243 -12.278846 1.371295
0.63980126 -12.06976 2.3174875
1.0554796 -11.928214 2.9937007
1.2814163 -12.1227255 -9.196532
1.1275928 -12.201721 -8.818936
0.7252482 -11.3018465 -2.5979521
0.9507183 -11.318892 -0.024367422
0.46026 -11.641737 2.5505595
0.84217954 -11.631932 2.9592643
0.56213075 -11.004705 2.8866115
1.0335337 -9.274258 2.1711278
0.29318255 -8.948997 -6.427696
1.179457 -8.4159775 2.3281653
0.46231434 -6.973704 -7.929164
0.19506362 -5.855648 -8.827673
0.24715433 -6.0500417 -8.573423
0.20325276 -6.589518 3.6544929
0.6400322 -6.192669 3.9912355
0.7428628 -5.482366 -4.507732
0.25844726 -6.124463 -4.218775
1.0323763 -5.69419 -0.7049991
0.58707184 -5.2772713 -0.4381757
0.52392983 -5.5671077 4.2474456
0.8947634 -4.303509 -4.3024487
0.41912887 -2.8863225 -10.493261
0.5256561 -3.477179 -4.4366384
[...]
POINT_DATA 2241
SCALARS features_00 float 1
LOOKUP_TABLE default
0.847739 0.8529523 0.9005723 0.9504838 0.9913455 0.9965018 0.96694994 1.0 0.9858877 0.9327786 0.9492352 0.6322272 0.5073044 0.56945616 0.6513852 0.6734983 0.4946045 0.5565344 0.6311897 0.6680368 0.6761301 0.53472656 0.5912322 0.6646995 0.64737344 0.65538466 0.57450944 0.6197891 0.64292043 0.6246084 0.7659967 0.7849643 0.75105435 0.79637027 0.8433329 0.8987058 0.49488878 0.5111588 0.85409963 0.95836717 0.4871015 0.7916886 0.89349467 0.92086357 0.42260286 0.48950863 0.7080349 0.84642017 0.90548456 0.86963856 0.544714 0.845065 0.33746487 0.32930577 0.4394992 0.5997296 0.66261613 0.33690315 0.44729826 0.6714369 0.66615313 0.394799 0.45174015 0.6514026 0.40721634 0.48979545 0.6236131 0.43849078 0.5609974 0.61390036 0.59978384 0.58103836 0.60847384 0.5955491 0.5709509 0.690255 0.7108233 0.70976305 0.4307198 0.45235923 0.49687675 0.6078799 0.7111691 0.7663636 0.82077193 0.40649453 0.44414523 0.4834118 0.5186113 0.52809525 0.8468554 0.81385463 0.4249428 0.5210226 0.513886 0.5221956 0.6157241 0.8244562 0.724329 0.2490767 0.30709004 0.44053546 0.5724505 0.76801527 0.70947427 0.23522553 0.26058716 0.6914761 0.7948015 0.77125096 0.24064007 0.6209376 0.6322889 0.2787509 0.30429602 0.6064403 0.32018995 0.6042416 0.32633957 0.31060743 0.50261897 0.52791226 0.46891034 0.51737595 0.491126 0.50191855 0.503114 0.4732674 0.46459085 0.49470544 0.45954287 0.4648724 0.4809695 0.41797078 0.4003712 0.40339047 0.2691024 0.25104588 0.19477199 0.38842633 0.15153886 0.51648104 0.61489975 0.40190881 0.42254335 0.47457144 0.46464267 0.6408116 0.32680926 0.37827542 0.40858448 0.41666016 0.5057194 0.551651 0.28641367 0.33936656 0.48587227 0.46870482 0.5852296 0.65033627 0.2408825 0.4926908 0.526334 0.6952206 0.6671593 0.22603714 0.5525942 0.73717093 0.7483423 0.737327 0.2289193 0.734686 0.29419842 0.3084615 0.35233557 0.2823713 0.28034055 0.45985693 0.25814295 0.27910894 0.35238856 0.49272105 0.57825667 0.5346181 0.4495513 0.5717838 0.6201875 0.62258 0.60163283 0.45810944 0.46409732 0.43821895 0.63183177 0.63119704 0.631282 0.4506768 0.49466914 0.45983398 0.42487204 0.595698 0.60890675 0.6117882 0.3963391 0.4695859 0.40877962 0.5311037 0.55787736 0.54856867 0.42621958 0.30531198 0.12910059 0.22579142 0.3859042 0.31242362 0.09364067 0.14025503 0.33325475 0.20592964 0.14316143 0.0697376 0.16629183 0.07487717 0.27452973 0.3418053 0.16976503 0.04637411 0.18253428 0.046110168 0.4898878 0.27940112 0.252046 0.5164906 0.17869891 0.25588956 0.4983411 0.18110338 0.28895345 0.1917147 0.43099225 0.667294 0.17475155 0.5136386 0.62287563 0.702757 0.70753837 0.18986231 0.21312073 0.10690695 0.25624484 0.055211067 0.25995058 0.055560943 0.20253527 0.23086876 0.41735232 0.44900775 0.49773282 0.48754197 0.56867003 0.6209434 0.6380831 0.6024457 0.5573846 0.62989193 0.6384807 0.62939936 0.56922644 0.5232419 0.43736336 0.44869846 0.69630456 0.6548507 0.5083371 0.3825233 0.41106206 0.4164803 0.75557387 0.73376 0.69205964 0.6385236 0.35761136 0.6408316 0.743961 0.71824706 0.68583125 0.64860404 0.6299726 0.64651334 0.6330162 0.60890377 0.70466185 0.68834805 0.36922145 0.53783715 0.6216539 0.600757 0.553565 0.33968407 0.25435734 0.15951656 0.27930993 0.2578917 0.2656636 0.28636372 0.29604074 0.23279989 0.13377944 0.026149256 0.18420024 0.3067494 0.06955534 0.11868265 0.032215938 0.569437 0.3268853 0.6258706 0.22735827 -0.05309613 -0.04674963 0.2653773 0.2043533 0.13290155 0.1991432 0.22379974 0.14909112 0.23725432 0.45345452 0.51821494 0.48983955 0.546285 0.59561944 0.60948914 0.5674407 0.5587318 0.59876305 0.6317974 0.62880415 0.58956087 0.5487267 0.48224342 0.45224655 0.46286446 0.67144024 0.60994875 0.5388452 0.478136 0.44578236 0.45816237 0.45942098 0.79878795 0.71379477 0.44453853 0.8049478 0.51367414 0.59564084 0.60202473 0.7617246 0.73106194 0.5879845 0.6106987 0.5877093 0.50463414 0.735639 0.6978453 0.67108095 0.5871291 0.47969192 0.19328405 0.09340604 0.048063487 -0.056022614 0.24939665 0.04750205 0.14188981 0.20684972 0.12136215 0.074268945 -0.08587782 0.21444027 0.2247742 0.27487165 0.16623756 0.14057757 0.10430372 0.03974919 0.32583618 -0.00087068975 0.3226975 0.26981404 0.22042795 0.2640181 0.24996504 0.19078149 0.21819304 0.25523335 0.25094622 0.25587726 0.42555782 0.36117044 0.5157842 0.48929742 0.49744302 0.63053757 0.57134104 0.53778505 0.5527992 0.6106811 0.6320735 0.65583444 0.6189907 0.5811178 0.5293653 0.4652505 0.46611166 0.4560216 0.79985285 0.7050478 0.45257914 0.8956922 0.8702206 0.3306635 0.875103 0.8601763 0.33637163 0.47068465 0.52932036 0.8295137 0.5242997 0.45323896 0.76887375 0.6966921 -0.20884332 0.43638235 0.47282678 -0.14294058 0.46373516 0.49649438 0.5340537 -0.2164743 0.45516932 0.4903091 0.5130093 0.5642092 -0.028915 0.40914255 0.44750905 0.5204534 0.061664533 0.028300107 0.20300151 0.29485524 0.36026952 0.37547988 0.0969447 -0.11335697 0.06655713 0.19812207 0.24606761 0.095366314 0.1354456 0.10829644 0.13418743 0.28769428 -0.10392242 0.07046279 0.08269689 0.0688948 0.15783973 0.16243775 0.35802975 0.3389227 0.10738228 0.12600769 0.3525123 0.33121154 0.16698098 0.3303694 0.30317202 0.26738304 0.29387295 0.30877015 0.2574688 0.21497086 0.23328754 0.25284863 0.23262236 0.24516687 0.26816595 0.13365474 0.43335783 0.43121138 0.49528933 0.5129971 0.6391012 0.53451705 0.5925956 0.65161186 0.62235576 0.58813244 0.55349076 0.48940402 0.43938017 0.42208767 0.82402617 0.72445786 0.3123988 0.90895146 0.887095 0.23530908 0.11390301 0.907004 0.20935152 0.33450538 0.36491317 0.8528955 0.7652017 0.44031262 0.40974572 0.73542607 0.25628567 -0.112207174 -0.24288973 0.3472849 0.45656914 0.5041742 -0.11059127 0.49488372 0.5609775 0.59697896 -0.15614015 0.58692855 0.60141945 0.0075233653 0.5652585 0.09228067 0.33665717 0.093081236 0.11932981 0.20634195 0.287745 0.15157646 0.18019554 0.17517248 0.13007079 0.32563466 0.16881636 0.15901294 0.35790813 0.0014059395 0.05214423 0.14374192 0.35297492 -0.023384139 0.034518965 0.13838468 0.29877555 0.24666756 0.24693665 -0.17248225 -0.09960049 0.14785902 0.2617241 0.38955903 0.39228386 0.453406 0.45314825 0.5039044 0.6157886 0.6365051 0.608703 0.5595665 0.48574448 0.48122793 0.39942187 0.37408578 0.65774405 0.5897659 0.32891238 0.20462775 0.8806751 0.79324746 0.62224764 0.1655365 0.900349 0.8071084 0.18362379 0.20725968 0.8396691 0.7839856 0.06869382 0.047983132 -0.083310336 -0.033063293 0.3017466 0.3533123 0.52380013 0.53252316 0.5816283 0.606073 -0.04051883 0.5286111 0.0906909 0.17158681 0.09063384 0.109025404 0.15069556 0.020767674 0.06627701 0.07471773 0.12496002 0.08934219 0.11873584 0.20670998 0.32003948 0.07530853 0.31863132 0.030345822 -0.038111042 -0.013174288 0.027746528 0.2965882 0.17615815 -0.076531425 0.060794674 0.18334427 0.24506688 0.37020126 0.3803144 0.43030578 0.41319147 0.20473707 0.4974389 0.43306097 0.5315876 0.452675 -0.01607456 0.09749153 -0.109871335 -0.1423462 0.45021963 -0.2997952 -0.01926791 0.1343432 0.11775166 0.1129034 0.027266849 0.06745306 0.05985921 0.4801951 -0.04379689 0.5107994 -0.0717718 0.5490579 0.10336115 0.41112003 0.53258383 0.040442374 0.18779802 -0.03450992 0.047895163 -0.00086449087 -0.03629157 0.11181316 0.13073088 0.008780185 0.091819316 0.27511224 0.8864696 0.8371142 -0.023855276 0.0059853243 0.22557834 0.40106824 0.36067623 0.42526758 0.34936887 0.88855886 0.87559843 0.84414744 0.18997382 -0.10001674 0.5246323 0.5274614 0.51915425 0.84482104 0.8419977 0.8372348 0.5404854 0.5536644 0.55805284 0.5520651 0.008055955 -0.2806588 0.042513765 0.01766352 0.05430589 0.47302315 0.26937506 0.2013212 0.18878631 0.11060956 0.51854384 0.2980785 0.49468544 0.46653795 0.24050194 0.1920575 0.07483425 0.008960679 -0.090629876 -0.09056622 0.052155208 0.18288776 0.16964114 0.19593316 0.25447023 0.2356422 0.22456881 0.23568982 0.12202646 -0.026012026 0.07776125 0.31020105 0.3876953 0.4390027 0.5354307 0.14474446 0.08570139 0.5179395 0.5912966 0.63749075 0.6267669 0.41658455 0.16522232 0.14519392 0.18595424 0.32013437 0.43906736 0.5659249 0.6107801 0.64698744 0.83942723 0.71852684 0.25392187 0.15127805 0.20654614 0.49211055 0.5624268 0.6211177 0.864321 0.8023366 0.17515151 0.20815122 0.27568275 0.31022608 0.4566452 0.8323641 0.78818965 0.11542529 0.1361992 0.16432792 0.23531532 0.27267697 0.31209147 0.099111795 0.15636909 0.20737311 0.87345874 0.2194713 0.121875495 0.83938026 0.94810116 0.8490153 0.8262235 0.81305116 0.1418261 -0.26638398 -0.2123616 0.3489254 0.344154 0.794335 0.837813 0.82825613 -0.13593727 0.43038464 0.48476952 0.69055885 0.77038085 0.82007116 0.8246473 0.82600963 0.046335503 0.03258849 0.047094166 -0.017608628 0.5086192 0.54797566 0.5376692 0.5285231 0.48197812 0.6741788 0.78440034 0.80125505 0.107496746 0.12052503 0.08689987 0.1215205 -0.00737918 -0.028315447 0.5321221 -0.14275743 0.16207172 0.115183264 0.105739556 0.5709568 0.27806175 0.2618891 0.22118099 0.5708399 0.5210408 0.42258328 0.65283275 0.5578096 0.66397154 0.5267201 0.47400832 0.18090783 0.2460485 0.23490188 0.0623558 0.13428754 0.10173031 0.19822651 0.27242246 0.28123012 0.11849995 0.048024252 0.07471885 -0.06035866 0.06242048 0.22257988 0.274734 0.31753612 0.015474774 0.2811303 0.30755955 0.25653645 0.22212383 0.11930266 0.031588495 0.14694403 0.40385723 0.517074 0.55878633 0.2665254 0.4561167 0.56453544 0.62558186 0.20081504 0.6602049 0.65330774 0.7988881 0.6785568 0.47415712 0.64794445 0.858651 0.63196456 0.8723417 0.375538 0.8364974 0.26550314 0.14826593 0.21617319 0.78646064 0.39646828 0.8895278 0.7833884 0.79559976 0.43782908 0.629582 0.8287789 0.42260504 0.4566488 0.8567586 -0.025486343 0.45368975 0.46246335 0.53783846 0.6880152 0.7729006 0.7784046 0.2778678 0.08747045 0.09541999 0.48184723 0.11060582 0.14454283 0.14013806 0.12707445 0.5267436 0.026442256 0.06902549 0.12516257 0.15448156 0.1578642 0.59899664 0.24956393 0.2583499 0.3035406 0.21958882 0.21823628 0.15346886 0.5991655 0.59581095 0.54625046 0.55140305 0.47844446 0.60787725 0.56841964 0.55483973 0.7587974 0.70931125 0.60924983 0.7835051 0.76612717 0.38723242 0.46121538 0.33651096 0.38637307 0.32311288 0.1037979 0.21796937 0.10791862 0.009052586 -0.01678238 0.3185512 0.32395008 0.28322458 0.02242505 0.28539172 0.15877253 0.17821188 0.1530892 0.27092144 0.50682473 0.56928456 0.5814042 0.14665669 0.16537991 0.109061815 0.14162599 0.5885395 0.5860317 0.52188605 0.5811766 0.7433779 0.68759227 0.6076175 0.5607485 0.83368444 0.48310113 0.5247238 0.8463037 0.763039 0.6118331 0.29564065 0.22716893 0.33679894 0.66882885 0.65769845 0.62248415 0.46371952 0.20038216 0.66119385 0.7414333 0.50762635 0.8551343 0.5451039 0.48640382 0.33621994 0.8846861 0.065368004 0.42005336 0.41606405 0.3704003 0.41509467 0.82929146 0.84634537 0.5784529 0.6955674 0.7748828 0.3428919 0.12934828 0.12791392 0.107493445 0.5406431 0.17307335 0.082261264 0.05197315 0.6163962 0.09542726 0.22005197 0.19572917 0.19007629 0.3615417 0.3655874 0.3052758 0.62159634 0.62617385 0.5593835 0.30732808 0.33584613 0.38046658 0.33287287 0.4515667 0.41069317 0.390902 0.60928094 0.607121 0.60163796 0.59858596 0.35895061 0.43133277 0.7602506 0.73299456 0.6686946 0.7794261 0.76586 0.6935612 0.64882374 0.53489125 0.77873254 0.4464583 0.4464728 0.52265 0.42968142 0.49484926 0.111672044 0.45760426 -0.007000655 0.23308186 0.03947196 0.18227032 0.23607858 0.28768286 0.29991332 0.4137333 0.43879095 0.20961225 0.23331702 0.29976058 0.3853185 0.20193562 0.49769384 0.5488695 0.54651874 0.16912721 0.54773176 0.5597168 0.5195718 0.6661736 0.5613247 0.43142956 0.6973871 0.5249752 0.7114018 0.512294 0.6517749 0.5326684 0.474424 0.55549943 0.45717025 0.6362132 0.70732975 0.52919793 0.07330267 -0.2777022 0.778281 0.8383913 0.5479996 0.27613872 0.22257227 0.84870434 0.5299265 0.4126557 -0.116340205 0.33110464 0.23954123 0.770808 0.829221 0.130407 -0.033321872 0.3131218 0.41107875 0.44266713 0.5117167 0.7149858 0.73557806 0.32962996 0.2781454 0.48582846 0.15083839 0.6351012 0.44907504 0.15502165 0.16643175 0.13494286 0.15211548 0.28651485 0.25818256 0.63719857 0.5976142 0.58394206 0.5635035 0.29570112 0.32021666 0.57432854 0.38554084 0.5917384 0.3748364 0.44182593 0.48448402 0.50105536 0.5956006 0.594065 0.5107623 0.3951366 0.5841211 0.5500023 0.7586498 0.71624184 0.6692748 0.7731625 0.7720193 0.6937622 0.6160381 0.5809442 0.74219334 0.48250556 0.50521976 0.52175665 0.52295554 0.48383698 0.36433035 0.54277796 0.0776689 0.22721754 0.5265217 0.4180731 0.42056334 -0.09942761 0.29816192 0.34880525 0.3923754 0.28891084 -0.03032741 0.35997453 0.47359914 0.48341268 0.49404326 0.22695133 0.23951933 0.20963944 0.20638579 0.0138858855 0.23957193 0.4372992 0.027992055 0.45876765 0.33664316 0.22721677 0.35946697 0.4437045 0.26521683 0.14545996 0.24045327 0.1142602 0.38221213 0.42488387 0.44808394 0.58608764 0.678136 0.533199 0.7069292 0.8022294 0.5360099 -0.2053593 -0.38218644 0.76354814 0.8010815 0.5332656 0.50530356 0.17427903 -0.22805972 -0.075531766 0.20171286 0.7565819 0.80013764 0.06378058 -0.05453713 0.22965617 0.41324288 0.4540379 0.6813982 0.13288131 -0.039345194 -0.023815893 0.5621479 0.54660225 0.47926494 -0.08511236 0.09899564 0.19826849 0.10192169 0.5920318 0.53772116 0.53960043 0.48727682 0.28160378 0.5689654 0.406884 0.5100497 0.5584291 0.56305313 0.49175262 0.5993867 0.30478984 0.6061373 0.5972712 0.56322503 0.3912739 0.25575235 0.61127317 0.5983812 0.56597805 0.75995886 0.75331104 0.7146572 0.61298853 0.552072 0.72287416 0.73376596 0.50932395 0.49936873 0.51598954 0.61585635 0.5416814 0.5498821 0.6288183 0.5541386 0.4813062 0.49821478 0.53041553 0.36945832 0.41007963 0.44362837 0.37218693 0.2524648 0.3314412 0.37230808 0.16441388 0.20511456 0.36583287 0.4806223 0.4930265 0.2415485 0.24236079 0.13298556 -0.08290844 0.045315437 0.16685687 0.44318032 0.3605649 0.32412997 -0.124708444 -0.042166293 0.0053503215 0.109190896 0.20182231 0.30815074 -0.1709883 -0.03030388 0.18213984 -0.1837214 0.19656968 0.2949059 -0.0040055662 0.008371495 -0.0074429847 0.119992144 0.30255085 0.3807988 0.4616825 0.53999096 0.6885656 0.5155178 0.46166041 0.6436087 0.7026446 0.31061 0.09473565 -0.14476088 0.5723948 0.6351594 0.72396505 0.26204672 -0.11636119 -0.19930553 0.19268917 0.46032113 0.53422344 -0.0212363 -0.15738696 0.023338623 -0.021901388 0.17918643 0.13345319 0.12041993 0.24682114 -0.35909757 0.37970307 0.16469678 0.22131768 0.16630235 0.2082665 0.48441583 0.48471433 0.1999515 0.3638017 0.5159849 0.5585023 0.5547035 0.5298401 0.4175245 0.50811225 0.5618243 0.61950725 0.63657665 0.38788855 0.5028318 0.6185901 0.61905193 0.6358415 0.6176724 0.5844969 0.640442 0.65405285 0.6687954 0.7294049 0.73127073 0.7108851 0.73293614 0.7486824 0.60507923 0.5277791 0.67384106 0.7348403 0.5762811 0.532857 0.5519107 0.5362152 0.5374007 0.54626894 0.6213969 0.55120134 0.48399222 0.46683896 0.5206308 0.37190086 0.40088087 0.4214869 0.3598275 0.35335684 0.35624972 0.2565288 0.31670737 0.36210024 0.19841278 0.17130677 0.42372525 0.4424745 0.4426778 0.36435175 0.27962834 0.1005481 -0.13333528 -0.031262204 -0.015559852 0.1978974 0.272901 0.38080782 0.40825558 0.36987573 0.4268631 0.40948564 -0.15446807 -0.26377758 -0.22409898 0.12279539 0.30724415 0.43560928 -0.27440423 -0.14546071 -0.15407105 0.27090776 0.25996944 0.38813123 -0.1666242 -0.25586987 0.19855258 0.12852792 0.11536489 0.0069839135 0.011553708 0.10162671 0.2241053 0.3295974 0.38666475 0.3024952 0.3816154 0.48388547 0.43268466 0.4169757 0.46247518 0.26495537 0.17880394 0.3035587 0.4468143 0.40963414 0.36593452 0.012884386 0.49354148 0.55457705 0.39255244 0.24262649 0.1766851 0.33805138 0.23287715 0.22492355 0.44531733 0.39240766 0.42926237 0.35392582 0.5052581 0.44095767 0.5046421 0.49608877 0.56090665 0.63030666 0.6383321 0.6596709 0.6265276 0.6824621 0.6312548 0.7441048 0.76319826 0.7207477 0.6855701 0.74889827 0.76135767 0.7781185 0.7621987 0.63109297 0.7693701 0.83770573 0.80146605 0.6793927 0.7805257 0.8520273 0.7355838 0.63232553 0.5438027 0.68326485 0.46476817 0.44432896 0.2588983 0.31245345 0.36154294 0.4192187 0.21407485 0.40137154 0.39976972 0.32066014 0.26173785 0.04392141 -0.10380758 0.34209654 0.37336934 0.3855592 0.386428 0.40042958 0.4559627 0.43326867 -0.23154122 0.089536235 0.21093768 0.3829878 0.3885141 0.45882934 -0.13582972 0.037948098 -0.10352943 0.09333975 0.3606671 0.33001435 0.40110844 -0.12389213 -0.17068627 -0.20722672 -0.21543995 0.31012553 0.29678428 0.26307496 0.26870337 0.28300315 0.243355 0.1621961 0.06062279 0.14753008 0.034053143 0.12227742 0.10125284 0.19514117 0.22488242 0.25888982 0.3076992 0.32787752 0.23785451 0.33384317 0.33126897 0.3494208 0.36100394 0.41805074 0.530046 0.36972678 0.56751704 0.3684948 0.1939569 0.17338842 -0.2835322 -0.382586 0.29585397 0.30126444 0.3152283 0.27072728 0.2653308 0.35309762 0.53479564 0.62226534 0.6202042 0.60145247 0.34125468 0.65940076 0.633611 0.61535746 0.583887 0.4148379 0.6420128 0.72350943 0.75574434 0.6847139 0.27717653 0.3273067 0.2674232 0.39990962 0.3431031 0.24621904 0.09294647 0.3234288 0.40313423 0.4437982 0.4320619 0.46762353 0.42638725 -0.08935475 0.17542902 0.2624446 0.31892824 0.37997168 0.44987828 0.4478976 0.42425472 0.48606154 -0.0930767 0.020257875 0.06385457 0.1756115 0.40827662 0.35828692 0.39103532 0.43601114 0.024404518 -0.08421326 0.03777436 0.02751775 0.3294723 0.33582214 0.012444619 0.3218586 0.29110545 0.2771936 0.2765572 0.2051655 0.21322165 0.15293884 0.11827182 0.19166936 0.17260844 0.16736674 0.119664036 0.2832647 0.3088314 0.21030146 0.32742107 0.3316226 0.2812861 0.3546636 0.33695507 0.4246732 0.28419513 0.4098264 0.37946248 0.5379216 0.2858769 0.5729786 0.48994052 0.35658073 0.16691259 0.52372354 0.3538512 0.35699376 0.36614537 0.48751023 0.5775885 0.48140854 0.575968 0.5688158 0.50039697 0.35381657 0.31115144 0.49707675 0.6304016 0.5934421 0.56540257 0.526092 0.49116033 0.44606048 0.5954774 0.6641666 0.6652726 0.29561222 0.22816221 0.23638919 0.22081742 0.22440755 0.432781 0.3310906 0.22494614 0.14464113 0.12119427 0.420716 0.4724487 0.4745684 0.46261215 0.48720974 0.5060466 0.03894328 -0.11100308 0.19676012 0.4173495 0.4720319 0.43771875 0.47579402 -0.13917623 -0.2029075 -0.06209817 -0.06878262 0.13986349 0.17832953 -0.122329846 0.011538863 0.106426544 0.17748994 0.38867223 0.34429163 0.399716 0.4154402 -0.16298637 -0.046405725 0.095389545 0.1921089 0.32851863 0.37073246 0.3279246 0.2831893 0.2924347 0.20810056 0.18899538 0.16227812 0.2267085 0.17555852 0.23644596 0.037916627 0.28676397 0.2935624 0.3150468 0.32334316 0.4132769 0.36656374 0.5355672 0.5394447 0.47250438 0.49417812 0.552877 0.48801374 0.3873528 0.29475397 0.37335655 0.36974287 0.34265935 0.52567065 0.37619156 0.38104802 0.5341674 0.50857055 0.17581463 0.08106502 0.20168573 0.47017482 0.38774222 0.30202243 0.28179887 0.45504194 0.49832165 0.49290478 0.44854438 0.36493388 0.44371825 0.5050252 0.53533673 0.5483916 0.60577285 0.5692652 0.44157037 0.41648912 0.33281893 0.371378 0.4406191 0.42150944 0.24671385 0.11666441 0.19910719 0.5605091 0.53157854 0.48768318 0.010398939 0.29088908 0.36947095 0.4289561 0.44697833 0.58937776 -0.1372399 0.2419929 0.08759488 0.3506658 0.36744055 0.37995863 0.3844759 0.4175697 0.568558 -0.1852615 -0.27270097 0.16451944 0.24460551 0.2591359 0.3081361 0.18301931 0.29744148 0.33277258 0.32907403 0.523221 0.21952924 0.48420477 -0.33730373 -0.084350385 0.07154317 0.11545079 0.302903 0.2154866 0.31640136 0.2507436 -0.081178285 0.26794094 0.2597816 0.27855152 0.09313863 0.25296128 0.26600587 0.10022784 0.0019465536 0.10758418 0.20042464 0.18079999 0.34173614 0.27599245 0.2852769 0.31780988 0.26681876 0.34265542 0.34579343 0.52682614 0.52369833 0.024138134 0.3889225 0.5233225 0.46702445 0.24378607 0.074776754 0.090127714 0.37066716 0.3970782 0.41377997 0.14374106 0.16715842 0.38154188 0.4284511 0.4431671 0.44250333 0.45266712 0.7045239 0.67712665 0.68511224 0.69908893 0.5540049 0.39374414 0.57392037 0.5487294 0.45064902 0.33125564 0.6018949 0.59715396 0.57555383 -0.15485811 0.0750405 0.38256827 0.3746748 0.5944274 0.5607996 -0.13218193 -0.0337463 0.25550282 0.37684643 0.4344142 0.36164674 0.3977949 0.35554105 0.5145316 0.43939