# vtk DataFile Version 2.0
Really cool data
ASCII
DATASET POLYDATA
POINTS 6260 float
13.463394 80.774155 65.66211
13.431049 81.38282 65.568054
13.462034 81.47809 66.05525
13.447634 81.92148 66.0166
13.988205 80.02507 64.87323
13.931853 79.82469 65.527664
14.065915 79.71173 66.415306
14.334036 79.84049 67.223946
14.3050585 81.08036 62.279217
13.730726 80.58521 64.73421
13.578798 80.47363 65.46088
13.633016 80.52561 66.17574
13.98781 80.89058 67.086296
14.381514 81.68077 61.05654
14.225125 81.52628 61.511326
14.101377 81.73137 62.23104
14.045665 81.40221 63.911068
13.518577 81.663956 64.99716
13.559237 81.469055 66.31149
13.880352 81.45787 67.03022
14.288468 82.109825 61.19525
14.192318 82.223305 61.419758
14.037616 82.259575 62.24764
13.859814 82.656906 63.861996
13.8362 82.426254 64.51173
13.592918 82.35305 65.64836
13.736314 82.36642 66.348656
13.919655 82.03673 66.89816
14.190584 83.041214 61.90275
14.238083 83.25497 62.59018
14.044306 83.466446 63.563705
13.794678 83.48604 64.723816
13.881834 83.74972 65.24298
14.015415 82.97555 66.20131
14.373192 83.94906 62.90586
14.361494 84.279526 63.71937
14.088746 84.26329 64.61636
14.123006 84.18768 65.25272
14.93431 79.41201 65.190506
14.813078 79.13656 65.69136
14.884751 78.82312 66.62976
14.917183 78.82778 67.2213
15.378431 78.68002 72.86699
15.332728 78.62893 73.32389
15.152932 79.0643 74.02933
14.996081 80.23123 63.997345
14.439408 79.829254 64.65719
14.362817 79.51737 65.32899
14.435283 79.511024 66.83036
14.684541 79.438255 67.5769
14.925915 79.81247 67.856
15.112663 79.639145 72.60083
14.981807 79.58544 73.47801
14.857242 79.95646 74.457085
15.166794 79.83907 75.16596
14.878976 81.0116 61.06936
14.665362 80.953995 61.510387
14.491295 81.02223 62.36421
14.310422 80.42235 64.0262
14.442688 80.87589 67.65638
14.727275 80.44044 68.00512
15.223476 80.791145 68.92878
15.317496 80.83322 70.17503
15.220512 80.80507 71.4678
15.07309 80.18908 72.63736
14.842288 80.37231 73.50864
14.782559 80.39033 74.5283
15.141272 80.48463 75.27001
14.619349 81.5518 60.841717
14.427596 81.25557 61.294132
14.483135 81.2718 67.57076
14.954639 81.35449 68.12497
15.301427 81.73171 69.159874
15.210157 81.43414 70.501045
15.121772 81.51296 71.375534
14.964144 81.868645 72.35642
15.046504 81.3838 73.523125
14.860325 81.036 74.482666
15.181901 81.084236 75.14472
14.787802 82.41928 60.63596
14.607865 82.599686 67.27404
15.43627 82.14173 69.41033
15.348206 82.25866 70.636185
15.244157 82.376656 71.688446
15.015254 81.90619 72.599785
15.269442 82.327545 73.05166
14.51579 83.64343 61.87156
14.73317 83.41566 66.428894
14.576183 83.01282 66.73886
15.219849 83.58632 72.29243
15.383149 83.76209 73.150314
15.390339 83.923515 60.246338
14.845153 84.139206 61.71256
14.936216 84.32639 62.590317
14.48028 84.48253 63.816338
14.42849 84.55167 65.31576
14.73535 84.29778 65.89899
15.41852 84.974594 71.41689
15.287038 84.19966 72.30333
15.310153 85.046196 73.304726
15.219907 84.74126 61.694992
14.795555 84.87912 63.81131
14.711903 84.92341 64.32562
14.677077 84.81124 65.21108
15.252175 85.50111 71.81133
15.132034 85.606834 72.451324
15.308861 85.4821 73.43494
15.397224 85.69264 73.74766
15.326237 86.22245 71.83049
15.252747 86.402016 72.49227
15.301067 86.26431 73.259796
15.444256 86.92176 72.866104
15.6269865 78.37517 66.64865
15.952867 77.90154 72.74211
16.007694 77.73943 73.54248
15.967065 77.954216 74.040764
15.515707 78.68174 66.03809
15.441636 78.501945 66.50418
15.578086 78.486145 67.34604
15.767791 78.88127 68.347206
15.972067 78.81513 71.6006
15.540627 78.3873 73.03412
15.571935 78.34943 73.81423
15.677269 78.77306 74.66983
15.922337 78.78419 75.06045
15.93595 79.24558 75.70179
15.872082 80.442955 63.039494
15.499739 80.22433 63.7332
15.696313 79.44895 68.58058
15.851833 79.69545 69.37977
15.695616 79.83371 70.53827
15.492484 79.95498 71.834496
15.555851 79.55994 75.46626
15.959648 79.632385 75.881966
15.394877 81.04847 60.81709
15.408877 80.69231 61.54284
15.520411 80.54306 62.21011
15.427346 80.51488 75.59
15.758004 80.40286 75.84366
15.465941 81.601 60.394268
15.208011 81.35407 60.594753
15.58531 81.32823 75.4371
16.11219 81.70099 75.66349
16.209684 82.93666 58.04681
16.020536 82.7627 58.740833
15.87363 82.727295 59.460648
15.7593975 82.65398 68.94841
15.513736 82.59384 69.58846
16.140327 82.73196 74.63293
16.033125 83.82885 57.574665
15.954655 83.35771 58.43183
15.609569 82.76703 68.80319
15.964014 83.3149 69.79926
15.625383 83.25985 70.87435
16.203276 84.799576 56.7173
15.790253 84.42781 57.695576
15.709259 84.52321 58.39484
15.41891 84.15606 66.2199
15.887693 84.647064 71.13146
15.8633795 84.84538 74.04116
16.34922 85.35096 56.090706
16.008493 85.44433 56.75454
15.737043 85.27847 57.643345
15.801374 85.35979 58.280685
16.081825 85.43149 59.075943
15.677879 84.92933 61.64575
15.56503 85.46386 63.731888
15.783356 85.53609 64.316826
15.715135 85.03657 65.15772
15.151184 84.68229 65.74856
15.653543 85.658104 71.115715
15.914764 85.6274 74.25557
16.39104 86.51552 55.590294
16.179115 86.41709 56.35775
16.038681 86.32801 57.63298
15.967382 85.805115 58.145046
16.205946 85.749435 63.254078
15.761107 86.15844 71.02133
15.535991 86.50396 71.55703
15.579594 86.67038 73.445404
15.857648 86.35747 74.02884
15.964006 87.87677 55.32459
16.068798 87.52588 56.73866
16.117792 87.35887 57.427845
16.33914 87.38471 58.015892
16.116205 86.904884 71.23001
15.953928 87.25731 71.71147
15.663747 87.332886 72.64563
15.830963 87.30251 73.292404
16.00491 86.80591 73.873
16.352852 88.85223 51.84309
16.186739 88.74158 52.61151
16.071465 88.749825 53.774075
15.806324 88.44765 54.929615
15.706952 88.548645 55.471558
15.972912 88.389366 56.478188
16.270235 88.4195 57.47353
16.342747 88.33164 57.920635
16.189167 87.96529 72.00268
16.17826 88.12915 72.57148
16.125183 87.88315 73.122375
16.21935 89.52008 51.836056
15.910134 89.6165 52.46746
15.730082 89.63954 53.45519
15.742481 89.54683 54.378155
15.73758 89.47462 55.52209
15.907469 89.37746 56.212646
16.158846 89.23388 56.798668
16.442038 90.797485 51.109673
16.222578 90.583206 51.698204
15.829418 90.310326 52.745148
15.783038 90.40992 53.61895
15.878961 90.33206 54.376026
16.083305 90.22584 55.44813
16.118574 89.93784 56.187748
16.310757 91.09682 51.777252
16.14194 91.182365 52.598118
15.987097 90.86097 53.537506
16.176283 91.06185 54.09276
16.749502 77.46997 72.9835
16.630861 77.43999 73.54813
16.433344 78.313614 66.66243
16.979511 78.25476 67.379486
16.6136 78.01474 71.90931
16.435745 77.64226 72.67601
16.346844 77.53984 73.67179
16.587273 77.715256 74.17736
16.675392 78.06666 74.69776
16.012749 79.25355 65.181435
16.290745 78.83904 65.87833
16.676214 79.120575 69.974335
16.6918 78.745964 75.40242
16.660604 79.09495 75.76073
16.1261 80.15842 63.69873
16.377325 79.631615 64.72482
16.460234 79.59338 76.060165
16.15466 81.12355 60.83526
16.373947 80.92311 61.555687
16.47034 80.652756 62.571365
16.581364 80.33731 76.156906
16.874966 81.91221 58.741245
16.593014 81.66125 59.845455
16.659304 81.46555 75.89453
16.747448 83.18871 57.278854
16.48862 82.88628 57.715336
17.0612 84.20485 56.211765
16.716002 83.76969 56.825825
16.376606 83.33521 68.80251
16.412731 82.7837 74.86882
16.909315 84.96329 55.82227
16.53952 84.55795 56.57247
16.628098 84.58676 65.97073
17.01259 83.53681 67.46085
16.404327 84.04587 74.30301
16.805624 84.406815 74.86197
17.206923 85.83689 54.9417
16.597017 85.39632 55.95862
16.854301 85.60597 60.875595
16.74716 85.30415 65.24966
16.815805 86.713455 54.788387
16.657194 86.50287 58.98275
17.238283 86.39971 60.941807
17.198029 86.42766 61.1811
16.80551 86.05704 63.47591
16.972952 85.76513 65.42158
16.519648 86.42585 70.82779
16.469393 86.43752 74.34878
17.117142 85.9878 74.65494
17.180906 88.14929 51.19675
16.971218 87.93433 51.86002
16.791447 87.94515 52.511677
16.785883 87.815475 53.591446
16.481346 87.47233 58.47563
16.769432 87.74263 59.040913
16.819286 87.55618 60.78221
16.934578 87.5703 61.50378
16.962584 87.42862 62.548573
17.195704 87.41257 63.195156
17.281708 86.782936 63.98516
16.606455 87.35948 71.20765
16.435587 87.59741 71.51066
16.356495 87.65431 73.54463
16.439756 87.129654 73.96023
17.071941 88.83975 50.874283
16.581896 88.58639 51.71501
16.543755 88.414215 58.123493
16.746809 88.30359 59.09636
16.90349 88.360695 60.02266
16.918947 88.511284 61.487648
16.957415 88.37393 62.239193
17.306765 88.698845 63.30874
16.61553 88.14473 71.854836
16.548393 88.37476 72.54077
16.56339 88.18719 73.15178
16.69835 87.75753 73.711876
16.951464 89.3403 50.80068
16.448122 89.3529 51.372375
16.832922 89.53706 57.398396
17.07257 89.39314 58.324368
17.049757 88.8034 59.774742
17.140951 88.97773 60.58981
17.359503 89.60393 61.756195
17.289846 89.37703 62.62272
17.3972 89.31599 63.40505
16.881842 88.549065 72.43749
17.138233 90.45589 50.317036
16.68512 90.69688 50.810364
16.399477 90.36606 55.702824
16.585077 90.299324 56.315563
17.236042 89.83691 57.52205
17.215145 91.21026 50.35737
16.867393 91.39653 50.87669
16.567568 91.48829 51.46411
16.52739 91.58245 53.428936
16.642555 91.07473 55.278183
17.169558 91.07999 55.870434
17.042156 91.762085 50.97816
17.002935 92.225464 51.609856
16.915413 92.285385 52.28054
16.936441 92.02349 53.536095
17.135044 92.05692 54.302517
17.181309 91.80908 55.034237
17.116611 77.44551 73.294685
18.417477 78.202934 49.81338
18.244886 77.91951 67.424225
17.782492 78.19269 68.52468
17.196571 78.17871 71.74657
17.262335 77.57513 72.86561
17.31842 77.55569 73.55982
17.292994 77.9128 74.29688
17.094152 78.21064 74.769615
18.385883 78.7506 49.032497
18.283245 78.7489 49.544434
18.335337 78.61871 50.148544
18.053963 78.7497 66.075554
17.658731 78.701256 69.894966
17.157793 78.47039 71.16285
17.383879 78.502716 71.395325
17.196829 78.58644 75.17382
17.053362 79.06927 75.74902
18.375639 79.327354 49.0006
18.262445 79.26207 49.57248
18.33481 79.33366 50.18968
17.20977 79.52339 75.96132
18.05319 81.24972 58.67237
18.180344 81.0339 59.790497
17.413673 81.40605 61.907764
17.120937 81.07754 62.225895
17.326399 80.735085 63.60624
17.369364 80.22066 76.064804
[...]
POINT_DATA 6260
SCALARS features_00 float 1
LOOKUP_TABLE default
0.56270766 0.5336297 0.51401585 0.5004082 0.5588638 0.59587914 0.5923401 0.5006225 0.5559851 0.5582356 0.58105564 0.55825096 0.46112075 0.56211114 0.57042253 0.53013396 0.4632098 0.52477187 0.50100815 0.44894296 0.5397537 0.5313294 0.4949566 0.4117855 0.47054565 0.49748623 0.47100437 0.43693537 0.427464 0.36887288 0.37641093 0.47549084 0.5006591 0.47569788 0.3339198 0.380364 0.46686602 0.49307793 0.49235752 0.54969513 0.57639337 0.5585488 0.59456694 0.63251173 0.64494514 0.4139411 0.5056722 0.5625769 0.5714303 0.4887471 0.41218495 0.44764906 0.5450256 0.63681227 0.67621017 0.55391586 0.57052374 0.555316 0.49292094 0.36748064 0.33717367 0.15193518 0.1325556 0.22210278 0.3872419 0.48211873 0.6170767 0.6544071 0.5601506 0.57392263 0.34741208 0.1999327 0.096966505 0.14553232 0.1797152 0.19014858 0.39201546 0.56324506 0.5954616 0.4974436 0.3072779 0.10868466 0.10638837 0.11821887 0.20087479 0.20462817 0.34543133 0.4439112 0.409167 0.19918278 0.30270857 0.28555742 0.29411379 0.29359913 0.38268283 0.46789253 0.44096565 0.42182153 0.33067387 0.49519187 0.24545719 0.36428872 0.4142822 0.44054386 0.5294961 0.56537265 0.5371892 0.53072816 0.6215222 0.65301025 0.6055886 0.66970634 0.49000004 0.6906157 0.7423837 0.74549097 0.48784873 0.5144549 0.51330113 0.4038965 0.5253776 0.6520171 0.70343494 0.7056908 0.69532263 0.6778486 0.29307023 0.3248849 0.33145216 0.20007686 0.20835471 0.34535784 0.6847639 0.6753541 0.5133978 0.5142702 0.45976222 0.6568601 0.6624181 0.4737376 0.5260118 0.566202 0.4726144 0.33366555 0.3012355 0.296154 0.1230507 0.11035516 0.21125653 0.38648236 0.343374 0.11600758 0.088058375 0.050316457 0.35663217 0.42042696 0.38395077 0.33518454 0.31035998 0.3723961 0.2978746 0.3727836 0.38341293 0.2965175 0.13110752 0.17535904 0.29239917 0.28299722 0.3077466 0.37666583 0.5179254 0.4331449 0.25916272 0.33371416 0.23194005 0.2403452 0.12987895 0.55618113 0.6282989 0.6052805 0.5166663 0.3433085 0.24082646 0.16208541 0.108917296 0.596823 0.67024636 0.70764625 0.64745736 0.548628 0.41482422 0.42200476 0.4312474 0.40649548 0.39721566 0.2996648 0.18923762 0.1468966 0.707323 0.72783566 0.6925721 0.4682363 0.4964015 0.48688722 0.45699006 0.39002034 0.32024094 0.25660887 0.5193027 0.5341711 0.53442234 0.49424464 0.43892834 0.34777415 0.28840205 0.5693891 0.5720489 0.49634865 0.43447828 0.72182035 0.75355154 0.36548063 0.27047318 0.6052545 0.6977351 0.75649625 0.75436205 0.7226839 0.35779384 0.34058213 0.14351389 0.6701193 0.6589031 0.23256855 0.23513316 0.65898025 0.3923804 0.34268314 0.24055237 0.6597157 0.27173868 0.21506007 0.49808353 0.3191787 0.33188942 0.24297851 0.30356634 0.07957465 0.143931 0.2349325 0.31308052 0.07439004 -0.19993897 0.17387407 0.18262348 0.13246156 0.27081916 -0.17666058 0.1042133 0.10599012 0.052140415 -0.028086144 -0.0032821987 -0.011803411 0.012118841 0.48627725 0.4384012 0.33362043 0.31564406 0.31724757 0.3086292 0.19546197 0.078927085 0.05096322 0.056476213 0.12827848 0.11695883 0.0901293 -0.040044487 0.5810387 0.64310896 0.6294415 0.5289859 0.34175667 0.3848474 0.13033585 0.0628794 0.047887728 0.15857337 0.19640219 0.25017843 0.68960625 0.72930944 0.6981498 0.6013367 0.3704464 0.43050843 0.18796737 0.094335124 0.03881499 0.073823586 0.1744723 0.2568847 0.31226134 0.72235596 0.4160352 0.48947716 0.3033412 0.25065857 0.16212285 0.5057721 0.55697715 0.5861986 0.4926044 0.31198618 0.25344077 0.59052646 0.6139856 0.58694804 0.43953645 0.3336596 0.27966714 0.72905266 0.6405071 0.26473844 0.104809985 0.5529979 0.6934929 0.72484744 0.70666075 0.6919325 0.6288109 0.6228859 0.5875342 0.18283741 0.04572472 0.37540197 0.43526876 0.65603805 0.6431482 0.57405204 0.5765096 0.52053344 0.6305754 0.35211074 0.3547616 0.085463 0.14596868 0.05451125 0.62410223 0.3362835 0.3142473 0.22887483 0.2705751 0.21068838 0.20741664 -0.0634072 0.14107424 0.2401107 0.16136473 0.20067593 0.18271452 0.063109785 -0.19487697 0.24499542 0.20886838 0.16838281 0.09480979 -0.0942236 0.019542683 -0.10596626 -0.11618407 -0.08254923 0.28012484 0.3214723 0.28032097 0.21513979 0.2606826 0.087840654 0.073869556 0.50578463 0.15498155 0.1632833 0.23255058 0.20641834 0.5257274 0.6284769 0.6965513 0.5714616 0.23062009 0.2936344 0.04368103 0.05858796 0.3678921 0.38554788 0.45202082 0.7056427 0.35606337 0.16466388 -0.056922294 -0.023376033 0.14608952 0.26031506 0.36347696 0.42814314 0.45544893 0.52372503 0.2405986 0.17218432 -0.035507623 0.04135974 0.12895383 0.2740175 0.37574452 0.42535287 0.6024055 0.57366586 0.46808097 0.34447077 0.21933043 0.52944756 0.48704278 0.3610649 0.66410804 0.6611583 0.61845785 0.66087073 0.66642207 0.61461633 0.2849376 0.28297588 0.19171214 0.06434596 0.5888941 0.62806594 0.64243233 0.5777447 0.63079405 0.5222174 0.43128443 0.30961573 0.21175309 0.07852052 0.46640718 0.46935382 0.5661502 0.49000365 0.53723127 0.45989287 0.38573852 0.013085544 0.4413312 0.40969598 0.40400705 0.45188734 0.38111442 0.4147129 0.43183488 0.3902439 0.19939972 -0.058078006 -0.07435368 0.3444745 0.35939437 0.36783585 0.20372283 0.35850406 0.5415858 0.3159575 0.29099217 0.11039493 0.19378103 0.42910174 0.5077771 0.105820686 0.42279845 -0.03387634 -0.09928251 -0.033068325 0.06885175 -0.19164845 -0.07576022 -0.048158824 -0.14658518 -0.09365515 0.19484587 0.040719 -0.02511372 -0.11010197 -0.078532964 0.177259 0.12038632 0.079846784 -0.050954394 0.13340399 0.13640457 0.34257165 0.19281963 0.19059707 0.16509797 0.14104487 0.45329267 0.2083 0.15931211 0.44463527 0.3406338 0.26648244 0.091041625 0.23948464 0.29121545 0.43010843 0.42369628 0.49036944 0.48825806 0.12960592 0.15283643 0.04138849 0.04616099 0.018249368 0.11463466 0.25025117 0.30483738 0.41846156 0.39353067 0.24865703 0.21979335 0.10569968 0.17468937 0.09069804 0.21093999 0.2901 0.2996891 0.7639152 0.36469224 0.27365986 0.551837 0.6675582 0.7828381 0.78951323 0.7574971 0.6310333 0.7620963 0.75978017 0.7175214 0.4751548 0.58674645 0.69669056 0.70214427 0.6912534 0.6089497 0.60592806 0.64073557 0.6316484 0.5855672 0.4494953 0.51525646 0.57082695 0.27500293 0.2728018 0.57189363 0.64418685 0.4203952 0.4528906 0.5851832 0.19482249 0.2667485 0.18965179 0.1706534 0.51228136 0.552508 0.33526558 0.39263982 0.41936195 0.15728387 0.31932697 0.3590067 0.374755 0.47662368 0.27355772 0.31353354 0.3737366 0.063021034 0.17884362 0.24034469 0.40018338 0.1865736 0.16131414 0.1779646 0.21502903 0.48253167 0.4738196 0.43564993 -0.18602176 0.097545385 0.46938348 0.32055032 0.3465796 0.17825691 0.043924615 0.057425246 0.047088236 0.1666959 -0.39102793 0.5821037 0.58190846 0.6634119 0.6235843 0.2725666 0.29497123 0.20188285 0.099307574 -0.2308995 -0.13053432 0.117597185 0.5426394 0.5558665 0.6990831 0.6680837 0.6296145 0.5956633 0.2535366 0.25760415 0.24358338 0.13007721 -0.17757295 -0.04604859 -0.1450873 -0.1169033 0.45770863 0.49582207 0.6489315 0.603248 0.56831765 0.1594994 0.20557955 0.11775288 -0.11303632 -0.021612864 0.36897162 0.4184525 0.5876606 0.12584509 0.07202697 -0.13540487 -0.111451015 -0.06815789 0.04296149 0.1203806 0.09423805 -0.2561917 0.112369396 0.16173334 0.15980074 0.16495082 0.19728135 0.09554731 -0.038831018 0.24743417 0.2008046 0.40757352 0.20773827 0.22827631 0.18749526 0.082920805 -0.050436303 0.3031702 0.2746764 0.37917238 0.14780578 0.1318302 0.3272977 0.35847223 0.50597894 0.47146118 0.41042936 0.34038576 0.3973375 0.43517584 0.41998705 0.45478946 0.589157 0.58559686 0.49989042 0.3744158 0.29312992 0.21848235 0.28290653 0.19457743 0.14946088 0.0009966176 0.11035183 0.2130261 0.43786085 0.4960112 0.5235723 0.52377886 0.5993979 0.46844316 0.37812948 0.26419744 0.3225203 0.19964667 0.009370092 -0.02037865 0.104576916 0.05498007 0.15595542 0.24315517 0.46359852 0.5570512 0.6556835 0.6616743 0.58555686 0.5711195 0.16948421 0.38165802 0.24488482 0.13855235 0.35010415 0.41201496 0.75689805 0.4706412 0.46994495 0.3991937 0.26827818 0.1858592 0.3700252 0.4428259 0.6764015 0.50016224 0.39946675 0.33312547 0.3625558 0.39538127 0.6177666 0.31909117 0.3228311 0.35087112 0.49348652 0.5590028 0.5735599 0.5886164 0.477315 0.5361251 0.27029455 0.22616947 0.57900053 0.5431302 0.7133119 0.77226436 0.8018832 0.28843075 0.28444746 0.24199891 0.5472163 0.59196264 0.60687155 0.5550645 0.6283013 0.66654825 0.74244606 0.29271194 0.30064523 0.24842398 0.13359414 0.45014942 0.53921986 0.58578074 0.6203972 0.20011383 0.049616043 0.4727971 0.46779716 0.080923244 0.118692875 0.43673635 0.36683336 -0.39515638 0.051119365 0.055703998 0.20541564 0.313057 0.35326967 0.22658142 0.25259623 0.34664947 0.34476656 0.36937845 0.2829325 0.11987681 0.4662668 0.58448124 0.6507144 0.596091 0.52569276 0.43893522 0.23163411 0.078514084 0.11395925 -0.11144416 0.6172384 0.623693 0.7090889 0.69839907 0.6632179 0.5956267 0.5794002 0.15213934 -0.11146791 -0.19663845 -0.27173522 -0.16988231 -0.085042514 0.03581297 0.6103721 0.7051971 0.71738446 0.6921103 0.58979857 0.5268606 0.2230877 0.5360194 0.6829605 0.6700659 0.6317363 0.41546786 0.13795215 -0.1591629 0.37555432 0.44866014 0.61024743 0.5701434 0.5131768 0.46545303 0.11070908 0.14261347 -0.06956485 0.11032967 0.12942654 0.09621591 0.104341805 0.23231937 0.17171317 0.1720725 -0.0634032 -0.06636549 0.1001982 0.3339801 0.16397743 0.19916366 0.07458972 -0.021329902 0.15502274 0.1677832 0.37270886 0.2696437 0.27704227 0.15320827 0.32667184 0.52033556 0.10271235 0.15440318 0.154607 0.43207794 0.41603044 0.6261903 0.6230954 -0.068886176 0.041289702 0.28103378 0.18809175 0.2894284 0.53831965 0.49551427 0.47829562 0.67095244 0.62072325 0.4750001 0.35712555 0.27713785 0.22679004 -0.16377658 -0.0608589 0.25478482 0.42379546 0.5495039 0.32048604 0.56562203 0.60086036 0.59444404 0.5689278 0.60766685 0.5051374 0.35384673 0.27500218 0.10081752 0.19273026 0.6549437 0.6086946 0.62649995 0.61995757 0.60415876 0.39798716 0.46148252 0.18384027 0.11816978 0.28667378 0.65866137 0.46639913 0.49575943 0.46746027 0.362899 0.2558789 0.25602978 0.30446875 0.59333825 0.43977898 0.10353466 0.55629885 0.5717863 0.2302252 0.2739855 0.45682317 0.502595 0.5421514 0.2816954 0.36773854 0.4641772 0.4492624 0.63372076 0.6167221 0.5972975 0.54891264 0.6388528 0.63338625 0.59509695 0.45735675 0.5530859 0.6165627 0.56136215 0.49316323 0.41859832 0.4184415 0.55423224 0.53466874 0.44556293 0.4104185 0.36591306 0.4155496 0.4579801 0.42172492 0.25958902 0.35914755 0.3385983 0.15425906 0.117207676 0.14614826 0.73106945 0.779919 0.8037332 0.27128893 0.21199496 0.12773126 0.14583638 0.13086124 0.6033552 0.7228796 0.7880554 0.8122428 0.81441665 0.24686483 0.28090504 0.15355143 0.11150261 0.5090259 0.49672443 0.5278025 0.44094214 0.46396652 0.806226 0.78575414 0.26178676 0.10478762 0.3384913 0.38718653 0.6430985 0.11779975 0.08685353 0.3845755 0.4093424 -0.052625805 0.36534235 0.30787992 -0.2685385 -0.035178408 0.3536467 0.40885887 0.45132092 0.45478067 0.47595793 0.40416604 0.359084 0.16999513 0.25368017 0.20794606 0.20731613 0.17123947 -0.053030267 -0.28916365 -0.6548788 0.47888726 0.5348493 0.59733653 0.5222267 0.48968327 -0.0999302 0.029149696 -0.01928132 0.022368357 0.11208141 0.04162366 0.12208271 0.016688157 -0.041642345 -0.093857706 -0.20981757 0.5722169 0.67990446 0.6335344 0.03283915 0.6713412 0.6654281 0.5023414 0.6060432 0.51705444 0.4003166 0.28834054 0.4701617 0.43983662 0.46449524 0.24113172 0.11186183 -0.01832088 0.30226737 0.322672 0.28776494 0.34469503 0.50806165 0.3277585 0.33684248 0.2894308 0.3537389 0.44942647 0.3341181 0.30690578 0.13263598 0.29250425 0.4047054 0.1268744 -0.4136714 -0.19801202 0.30455065 0.35360494 0.55470014 -0.47288072 -0.43866464 -0.5105365 0.14038973 0.36575317 0.61204314 -0.21283385 -0.30981025 -0.5206873 0.32225224 0.3926101 0.11167892 0.12309877 0.45477295 0.6994967 0.70650685 0.20869987 0.20318572 -0.1744702 -0.1852396 -0.1368674 -0.4219517 0.5853634 0.3534408 0.5663893 0.51439774 0.7243588 0.66137296 0.50364345 0.33566147 0.23772821 0.1895029 0.004888937 0.23954241 -0.04178122 -0.2574608 0.5880437 0.62935746 0.61999476 0.59542394 0.27424133 0.62289596 0.41499037 0.4437364 0.17170271 0.068137184 0.58129513 0.3998434 0.40573728 0.35958672 0.2413601 0.10518578 -0.012963688 0.55212003 0.56600666 0.36307 0.33172166 0.217206 0.09956379 0.15542138 0.33043563 0.49683654 0.5243783 0.039669223 0.26863775 0.29821703 0.14775799 0.39080414 0.4378866 0.46679568 0.41452318 0.51944447 0.5548159 0.5828637 0.6260321 0.70893216 0.5663266 0.6188717 0.7021333 0.7810581 0.62472343 0.59609663 0.56804806 0.48939097 0.5643151 0.48745763 0.28733796 0.38009045 0.46296316 0.41234836 0.32629544 0.39274704 0.5534128 0.47631267 0.37746415 0.20288326 0.3141331 0.31923878 0.4251123 0.549153 0.4813009 0.17364445 0.16495486 0.3639499 0.016660407 0.072756946 0.090120904 0.22673506 0.31908485 0.34278995 0.013899457 0.05684119 0.13182437 0.2759748 0.26508194 0.5479859 0.5912056 0.47737956 0.3260333 0.038045347 -0.0643899 -0.016077066 0.067102894 0.17709929 0.22313935 0.24372011 0.64315736 0.6605741 0.5674983 0.37751737 0.09143122 -0.08157056 -0.051529706 0.03652423 0.16447091 0.7533207 0.7974453 0.7116535 0.708451 0.5833358 0.37553287 0.066552915 -0.046000414 0.16202536 0.12568969 0.12848288 0.52245915 0.6303011 0.71747684 0.80151695 0.77530515 0.65809953 0.5918924 0.21324974 0.16478138 0.29495534 0.7246064 0.16633436 0.1440833 0.13906907 0.021984711 0.34942663 0.56001836 -0.048944566 0.11266528 0.100629635 0.36398837 0.12041449 0.20842953 0.06337632 -0.098224185 0.3007607 0.4350471 0.4640803 0.4668908 0.45614666 0.44153535 0.37155533 0.28075913 -0.0014982969 -0.37801108 0.39266366 0.468221 0.46714562 0.025020093 0.01177851 -0.044537254 -0.13164976 -0.13753314 -0.08872513 -0.17822033 0.50428796 0.60307574 -0.16091253 0.5810672 0.39819354 0.4665488 0.35348067 0.271585 0.22256371 0.13168125 0.44843745 0.5004791 0.27249196 0.55213 0.27439255 0.32144406 0.52403355 0.32869428 0.3306359 0.45104855 0.25885975 0.37618282 0.45173204 -0.50786847 0.33847737 0.62664235 0.42865244 0.39146754 0.69610023 0.7198135 0.06466341 -0.17460923 -0.19849524 0.39013818 0.46314466 0.43224436 0.712697 0.72952366 0.71266335 0.45928198 0.21091653 0.15600587 0.14837201 -0.017902799 -0.0017466284 0.60126543 0.5678673 0.5634675 0.5354098 0.489106 0.22897997 0.23194796 0.27366504 0.36290947 0.33709905 0.29181236 0.27030414 0.372237 0.42552584 0.4898908 0.048635885 0.3060826 0.30353317 0.60213923 0.42133117 0.5086953 0.7523762 0.590393 0.6792952 0.82625663 0.8139707 0.7610785 0.8369583 0.8533696 0.84074783 0.59764826 0.5625695 0.11748514 0.43982622 0.5995726 0.54285866 0.07379179 0.19076811 0.44544315 0.14487506 0.31856504 0.5109221 0.5278001 0.45970422 0.20261842 0.49234706 0.5572936 0.57091606 0.5639954 0.28410047 0.1765684 0.0026488304 0.4785868 0.5010199 0.5726577 0.5707822 0.43143648 0.25604653 0.05034841 0.0250466 0.046588767 0.43450487 0.44015595 0.520562 0.5111518 0.38609782 0.14475106 -0.14627758 0.30895787 0.31360257 0.406837 0.16876161 0.11372598 0.2670813 0.23021793 0.4832033 0.21074134 0.57108307 0.5541534 -0.023597442 0.13726851 0.6166836 0.18172696 0.6151095 0.7044438 0.74716485 0.6499745 0.63156074 0.532545 0.16172862 0.027192747 0.14321189 0.13672018 -0.028998725 -0.038663134 0.3824753 0.69016063 0.113497324 0.11278728 0.4451883 0.19148834 0.043162435 0.122783825 0.16441168 -0.16912887 -0.084806345 0.36093315 0.18978794 0.16728663 0.1336692 0.1954622 0.18392652 0.024269722 0.22753738 0.14318022 0.012480754 0.42148548 0.4619305 0.3538826 0.31657916 0.0075170547 -0.11413427 0.42461586 0.45876426 0.45738518 0.4507723 0.3834939 -0.052187495 0.01737452 0.0019456712 -0.0779434 -0.3965486 -0.1086825 -0.38897645 0.46516132 0.45161524 -0.18776812 0.5397384 0.68268526 0.7453925 0.7505442 0.40783548 0.5061785 0.4581796 0.54210377 0.48398766 0.3685516 0.44791788 0.55102974 0.45948946 0.3445742 0.5348159 0.54900455 0.51263344 0.50974905 0.21068944 0.4678054 0.4683103 0.22589092 0.12688904 0.37175676 0.3102484 0.5062012 0.5737325 0.37447476 0.661883 0.6553954 -0.17012307 -0.30871505 0.3929306 0.39653024 0.7026809 0.72582555 0.6220387 0.14241602 0.10671976 -0.09814365 -0.22874737 -0.28157893 0.48386598 0.48011798 0.44087338 0.43955523 0.08421728 0.124935016 0.04108638 0.07975019 0.06490485 0.421303 0.13550785 0.32173976 0.33085445 0.43514073 0.24607442 0.20733142 0.32284376 0.39596993 0.5364783 0.22253844 0.47477716 0.52371985 0.17936864 0.15287387 0.34622774 0.64639497 0.42868274 0.67253464 0.74755615 0.65562534 0.80034065 0.7429178 0.828344 0.91144085 0.86748755 0.84610873 0.80860513 0.83746237 0.8388132 0.72574437 0.79151535 0.7973872 0.5747142 0.5953546 0.54314214 0.42329752 0.38960874 0.25652686 0.17296755 0.43522424 0.40942854 0.23312122 0.12476353 0.13663387 0.5810752 0.46636397 0.38895163 0.43447798 0.5239181 0.57376987 0.6691681 0.51598334 0.58068085 0.47027886 0.5299509 0.45626515 0.46421736 0.46889126 0.290333 0.42784393 0.3212232 0.20639436 0.3336065 0.32095373 0.1712591 0.13244647 0.4879822 0.6597702 0.6195352 0.5550178 -0.013957359 0.03690259 0.1616189 0.032357022 -0.031246506 -0.031951923 -0.01105229 0.51589406 0.37946653 0.5181008 0.4801279 0.4459617 0.38034755 0.04389216 0.30474237 0.27607802 -0.022988625 -0.027366236 0.06719142 0.32568485 0.20870873 0.15565012 0.07434057 -0.12318291 0.2862736 0.1833393 0.21105132 -0.031992357 0.13961588 0.1568397 -0.115347184 -0.14385174 0.030522823 0.03593485 0.43249038 -0.0006382875 -0.0055693667 -0.032681525 -0.40721983 -0.2665358 0.41942507 0.5449532 0.55015135 0.48256755 0.51254356 -0.45482463 -0.42293662 0.5172327 0.5608468 0.6632389 0.61806965 0.57347757 0.6691034 0.22783837 0.708598 0.6733621 0.6872047 0.52589214 0.66543436 0.68087935 0.6794378 0.56762886 0.58103245 0.32322443 0.56131995 0.52246493 0.35018027 0.35883456 0.44933927 0.39525652 0.101203054 0.43189234 0.48461354 0.08664158 0.08534199 0.40456152 0.05121594 0.3335839 0.3592115 -0.18623552 0.3050055 0.4419153 0.2928464 0.6226815 -0.25711834 0.3257977 0.6784295 -0.029608743 -0.101397626 -0.15953518 -0.2680964 0.37731886 0.31913906 0.046617642 -0.015953481 -0.0627066 -0.19224614 0.362721 0.2857067 0.13896614 0.0677483 0.21703097 0.46636504 0.35201913 0.2634371 0.4333085 0.5559366 0.43166143 0.13340731 0.06420161 0.33041036 0.50186944 0.6023921 0.5896213 0.5262058 0.14200863 0.15760788 0.48920706 0.59432256 0.5994489 0.17110011 0.13180259 0.39638382 0.5290926 0.6609943 0.75298166 0.77651405 0.755877 0.8018966 0.8674242 0.929121 0.86209214 0.8116989 0.7548887 0.81312674 0.86854845 0.84817684 0.6651144 0.7496117 0.79094964 0.7708223 0.5077343 0.67652404 0.29443783 0.37876698 0.4270017 0.1564264 0.13929823 0.13786153 0.17612474 0.18710937 0.46991158 0.5576959 0.6548953 0.67952037 0.6557447 0.61365724 0.61874175 0.40999037 0.49894422 0.52382964 0.3908692 0.27355504 0.3619191 0.13185805 0.29206118 0.10407084 0.44967115 -0.08531885 0.1133622 0.2253716 0.2412475 0.53035885 -0.22312106 0.36197278 0.3372991 0.22164622 0.09812755 -0.054055296 -0.04065632 0.07478812 0.25989807 0.2942778 0.50796354 -0.15413071 -0.09181654 0.3449831 0.34754944 0.33442414 0.2855544 -0.06722338 0.09926523 0.32705584 0.3675699 -0.05332472 0.04229562 0.34502584 0.34692997 0.12470107 0.17091015 0.16843592 0.14849386 0.21222383 0.3216277 0.32508773 0.08550211 0.17181742 0.2946303 0.00560295 0.10199092 -0.038527682 0.09867869 0.20405845 -0.18591404 -0.054699793 -0.06583777 0.41536123 0.34633183 -0.14997707 -0.26151 -0.07262313 -0.18101534 -0.27304915 -0.17736441 0.48149675 0.4977628 0.42289573 0.44351292 0.6497545 0.6727234 0.14957291 0.70158815 0.71239644 0.5144019 0.43248957 0.622563 0.6775018 0.6573889 0.69184875 0.7070482 0.5794016 0.5507455 -0.18081777 0.5578052 0.63539004 0.65700495 0.5861542 0.58760667 -0.077967495 0.5605353 0.49146554 -0.035140432 0.15179743 0.3979442 0.34711754 0.35763875 -0.07928955 0.32156754 -0.06596482 0.34681916 -0.099930584 0.18970487 0.12805016 0.1964962 -0.2692171 0.16898221 0.32691938 -0.09303774 -0.18346438 -0.31210744 -0.30322897 0.38837326 0.38411078 0.13067685 -0.25260672 0.25568336 0.41754246 0.42497236 0.41743383 0.3457187 0.29719672 -0.14933503 0.32856473 0.44