# vtk DataFile Version 2.0
Really cool data
ASCII
DATASET POLYDATA
POINTS 8776 float
-8.636364 59.29573 44.363194
-8.637053 59.93413 43.156292
-8.81259 59.8154 43.636875
-8.825609 59.7001 44.406086
-8.716097 59.749897 44.902317
-8.762758 60.535217 43.10925
-9.001495 60.54388 43.718834
-9.095199 60.49844 44.444237
-8.873593 60.61414 45.039604
-8.743263 61.026558 43.171192
-8.909926 61.264862 43.80205
-8.995647 61.26193 44.430748
-8.83361 61.373074 44.895317
-8.734274 61.70111 43.996082
-8.737832 61.73923 44.588917
-8.696157 62.856544 52.86011
-8.73047 62.63744 53.464153
-8.649349 62.819923 53.88133
-8.674914 63.375767 52.890003
-8.708655 63.38639 53.45942
-8.6654005 63.16191 53.84548
-8.590259 63.775707 53.474323
-8.1894245 59.07109 43.943295
-8.28339 59.07105 44.40215
-8.055597 59.126602 45.06419
-8.268509 59.756542 42.890797
-8.541231 59.45665 43.61288
-8.611892 59.48278 44.806263
-8.264663 59.612453 45.328667
-7.9511127 60.53768 42.40353
-8.303903 60.42858 42.688065
-8.559694 60.451363 45.36126
-8.09107 60.468178 45.705624
-7.7645493 60.76395 52.803856
-7.8284254 60.944267 53.32606
-8.220203 61.23337 42.878983
-8.524352 61.5655 43.46447
-8.620877 61.269375 45.177406
-7.930342 61.164215 45.731953
-8.138586 61.599934 52.66575
-8.159587 61.639004 53.549564
-8.145983 61.957954 53.955757
-8.236577 61.74721 43.214207
-8.247178 61.942017 43.703705
-8.355836 62.00714 44.381073
-7.971331 61.97589 45.12435
-8.321993 62.745842 52.314034
-8.460493 62.332603 52.701138
-8.345899 62.687344 54.122524
-8.307237 63.3532 52.22835
-8.451114 63.5553 52.554638
-8.221442 63.377975 54.194324
-7.9547367 64.02677 52.276096
-8.154224 64.19227 52.833294
-8.213022 64.14815 53.45692
-8.062471 64.01093 53.943024
-7.815733 64.573425 53.298893
-7.60838 59.212166 43.026283
-7.623318 58.872066 43.756725
-7.5610886 58.75969 44.37911
-7.2568254 59.910797 42.407322
-7.681569 59.57695 42.66158
-7.6035175 59.624306 45.773903
-7.205623 60.195583 52.718193
-7.128325 60.23765 53.354774
-7.4808254 60.501427 42.37468
-7.5970645 60.169212 45.838337
-6.9462967 60.841225 51.637695
-7.4939866 60.52403 52.65681
-7.493321 60.552654 53.45644
-7.2543383 60.72178 53.862755
-7.25376 61.64704 42.672527
-7.352144 61.171722 45.995056
-6.759827 62.0155 51.148636
-7.5795465 61.661507 51.76281
-7.4353037 61.942684 54.37297
-7.356352 61.99007 42.98987
-7.4522605 62.364487 43.58968
-7.6756873 62.40905 44.421654
-7.1807246 62.256847 45.2902
-7.251547 61.76482 45.82955
-6.986372 62.10035 51.312126
-7.4987283 62.542923 51.603134
-7.6492333 62.529152 54.442204
-7.3951926 62.716843 54.538567
-6.923421 62.68737 43.622757
-7.3939133 62.609985 44.57719
-7.4670925 63.5063 51.64513
-7.621493 63.421303 54.422436
-7.359374 63.348522 54.539837
-7.160047 64.24224 51.913593
-7.588035 64.37356 52.34843
-7.5419855 64.49433 53.691463
-7.493363 64.17938 54.071213
-7.2946224 64.6343 52.64692
-7.4656634 64.61442 53.394894
-6.4733524 58.959778 43.23294
-6.2505684 58.660973 43.695328
-6.5349727 58.900837 45.328396
-5.777247 59.403347 52.433685
-6.2529593 59.867386 42.456562
-6.0309205 59.656277 45.86073
-6.1424317 59.771896 51.927364
-6.3496747 59.760674 52.419243
-6.434474 59.844173 53.256973
-6.513791 60.194584 53.781433
-6.5494137 60.54648 42.190407
-6.466465 60.804443 51.333904
-6.485221 60.395702 51.56125
-6.634897 60.61042 54.088943
-6.00949 61.526733 42.46726
-6.608255 61.432606 46.23536
-6.3262534 61.764565 50.988674
-6.391047 62.140472 42.793236
-6.691705 62.42569 45.419777
-6.588388 61.779846 46.124702
-6.3138366 62.361115 51.02438
-6.855371 62.447037 54.56152
-6.388719 62.81728 43.67588
-6.340537 62.913555 44.448082
-6.529991 62.67168 45.12312
-6.2107224 63.545654 50.966404
-6.7422853 63.513115 54.496384
-6.114566 64.59502 51.335144
-6.528071 64.19953 54.145996
-6.1471586 65.283615 52.077522
-6.1383944 65.2582 52.44247
-6.280297 64.841 53.518646
-4.789126 58.104694 43.925583
-5.741518 58.357735 44.187557
-5.2398224 59.150944 41.87
-5.39499 59.029545 42.320133
-5.6233377 58.5384 44.950714
-5.25569 59.17409 46.122673
-5.178281 59.28581 51.959023
-5.4351273 59.291786 52.320686
-5.421087 59.345093 53.020813
-4.7900257 59.431114 41.24499
-5.3812575 59.544506 42.041748
-5.3851185 59.954624 46.320953
-4.8953195 60.077774 46.865444
-5.12572 60.076782 50.853947
-5.649266 59.598343 53.331608
-5.5486097 60.42983 41.902718
-5.161901 60.619774 46.44404
-5.6993136 60.48232 51.0444
-5.436255 60.84658 54.24345
-5.242205 61.49592 46.396126
-5.5745897 61.60971 54.35118
-5.607336 61.9814 42.729065
-5.8511853 62.003166 46.09953
-5.106177 62.40748 54.379116
-5.8972783 62.612625 43.23393
-5.8659434 62.90584 43.83229
-5.7273073 62.926834 44.404755
-5.621383 62.762714 45.071404
-4.893237 63.119656 50.421825
-5.6081123 63.301876 50.624924
-5.3787537 63.31278 54.327854
-5.5407515 64.42528 53.898296
-5.7328315 65.466736 52.476055
-5.738715 65.10337 53.309654
-5.5039186 64.7596 53.741932
-3.682999 54.737743 46.872097
-3.7651281 54.81996 47.359016
-3.6786203 54.94854 48.06295
-3.7576034 55.25772 46.906483
-3.9108872 55.279793 47.377968
-3.8506432 55.695637 48.49567
-3.7236195 55.93671 49.14002
-3.7393644 57.08787 42.002308
-3.8305354 57.229095 42.638374
-3.8643568 56.182304 47.54875
-3.9363217 56.363216 48.56975
-3.735066 56.512665 49.36607
-3.7721598 57.64281 40.866528
-3.8817718 57.465252 41.200848
-4.5917287 57.94816 42.76436
-3.9111238 57.721977 44.35504
-4.314571 58.10312 44.896458
-3.7468662 57.26506 48.773003
-4.101815 58.40178 40.668423
-4.491569 58.738342 41.244484
-4.4230704 58.891426 46.164364
-3.931722 58.770485 47.121582
-3.9740481 59.2596 51.630836
-4.7953744 59.1769 52.63373
-4.7678475 59.3457 53.162956
-4.235817 59.494514 40.634525
-4.204116 59.350166 46.98661
-4.1985073 60.035175 50.597294
-4.7003827 59.6178 53.43189
-4.7591486 59.91351 53.6972
-4.585848 60.665043 41.725227
-4.4976883 60.925003 50.11018
-4.528842 60.933228 42.104958
-3.946368 61.728493 49.965298
-4.539461 61.51131 54.09676
-4.7957373 62.038696 42.77137
-4.5098433 62.232384 45.91948
-4.625366 62.610245 43.474644
-4.331826 62.869545 44.580105
-4.6779795 63.36635 54.080612
-4.107789 64.25114 50.061768
-4.275951 64.64588 53.40611
-4.8684654 64.40406 53.920753
-4.3640504 65.11558 50.751823
-4.6859984 65.36173 53.004368
-3.8195107 66.67267 49.909397
-3.9882262 66.58088 50.33914
-4.2528396 66.0364 52.292946
-3.6917946 67.4869 50.043476
-3.8686445 67.34323 50.55466
-3.879932 67.475555 51.403282
-3.781207 68.41748 50.794327
-3.8030264 68.505394 51.47093
-3.6717741 68.55286 51.963066
-3.64639 68.93191 50.886223
-3.6650062 68.8949 51.514122
-3.044632 54.142174 46.76976
-3.2356913 54.183872 47.352497
-3.0235102 54.212944 47.932495
-2.9856234 54.7344 45.96692
-3.4825642 54.532265 46.71123
-3.4392638 54.377197 47.587784
-3.3356352 54.72235 48.318153
-3.0439053 55.087997 49.086674
-2.7269826 56.064903 41.935482
-2.7668407 56.062595 42.51055
-2.7663264 55.443775 45.84102
-3.587012 55.44594 48.80607
-3.3401945 55.64642 49.376324
-2.9125535 55.898373 49.8887
-2.7456348 57.15241 39.933033
-3.215017 57.04053 40.615433
-3.2517755 56.7494 41.426502
-3.0710316 56.407513 42.605465
-3.346544 56.764194 43.4294
-2.9826214 57.124718 44.6231
-3.1369004 56.863544 46.71275
-3.62392 56.227047 49.541862
-3.2515366 56.426975 49.85823
-2.7803395 57.91372 39.337227
-3.1109076 57.72632 39.78255
-3.4463503 57.393417 40.516212
-2.8397818 58.55084 39.161934
-3.318171 58.787693 39.59072
-2.8786356 58.726776 49.549774
-3.5642369 58.988968 51.842457
-3.4832864 59.270485 52.619846
-3.6083233 59.345665 52.830177
-2.9052312 59.069485 39.30315
-3.2679393 59.266106 39.680077
-3.345014 59.839325 50.290573
-4.029045 59.97874 53.566994
-3.2469983 59.83073 40.045235
-3.433909 60.203278 40.574394
-3.979053 60.94056 54.11496
-3.4107425 61.27797 47.497974
-3.2063665 61.16271 47.83667
-3.0374138 61.667603 54.23491
-3.568935 62.072174 42.98005
-3.4912171 62.564316 43.566624
-3.953891 62.61016 54.043232
-3.653446 62.837208 44.28233
-3.2864227 62.858246 45.140366
-3.633574 63.543903 53.796967
-3.4424362 65.00292 49.493973
-3.5192528 63.79846 53.492985
-3.6198096 64.96976 52.86583
-2.7561572 66.540474 48.951427
-3.5342398 66.058655 49.561565
-2.9293537 67.05141 49.092
-3.1780903 67.297195 49.45393
-3.4885974 67.42929 52.019455
-3.2123168 68.38484 49.907047
-3.523558 68.485115 50.37323
-3.287125 68.57586 52.204453
-3.0448878 68.88687 50.110443
-3.303264 69.15322 50.717022
-3.2958202 69.26538 51.398262
-3.206718 69.056404 51.96909
-2.9718506 69.54355 51.218395
-2.7471743 53.96785 46.944572
-2.6950154 53.99006 47.51609
-2.5809188 54.151646 47.99697
-1.8472174 55.301544 41.99194
-1.9774355 55.049374 42.952473
-1.9201499 55.090576 43.335903
-2.5485578 54.341877 46.061466
-2.3321164 54.490967 48.654854
-2.570512 54.99675 49.17836
-2.4165046 56.14307 40.957874
-2.4627109 55.99817 41.73034
-2.2793436 55.601673 42.430992
-2.2823753 55.58615 43.69937
-1.9375015 55.485985 44.75439
-2.7234056 55.449783 49.529404
-2.701038 55.50319 49.669937
-1.913118 57.16587 39.299385
-2.4867196 56.919785 39.910202
-2.3186057 56.473152 50.137325
-2.4004471 57.89106 39.119377
-2.7191222 57.591698 39.545933
-2.0322094 58.057518 50.602684
-2.3127308 58.54291 38.94063
-2.0122733 58.546677 51.416573
-1.7251537 58.443356 52.316
-1.9676299 59.15188 53.6795
-2.421591 59.141075 39.08467
-2.2480083 59.550182 53.748165
-1.9974582 59.689445 54.462963
-1.8225538 60.08629 54.91349
-2.4283147 59.791138 39.72107
-2.3466923 60.23867 40.57477
-1.9039147 60.221607 54.93362
-2.814089 61.672825 54.09414
-2.3453417 61.30917 54.750805
-2.5982544 61.886257 43.090073
-2.6950476 62.016003 54.071568
-2.4334576 62.786648 45.028526
-2.6815672 62.716503 45.27512
-2.4507513 62.699406 46.369152
-2.5658824 64.80296 48.546486
-2.0616248 63.764053 53.078117
-2.0617373 65.61859 48.24399
-2.011292 66.60677 48.53917
-2.3049295 66.74813 52.359142
-2.2270687 67.38263 48.874744
-2.3800747 67.619804 52.451958
-2.1802785 68.323746 49.142395
-2.6129055 68.2406 49.457127
-2.661897 68.47558 52.392998
-2.5855968 68.36303 52.53669
[...]
POINT_DATA 8776
SCALARS features_00 float 1
LOOKUP_TABLE default
0.8393377 0.87174 0.88556886 0.8763025 0.86545837 0.8927318 0.93295413 0.94653046 0.9202228 0.8769419 0.8932513 0.9190935 0.90254587 0.8531976 0.8641411 0.89912605 0.93096983 0.935414 0.89790046 0.9348706 0.94121534 0.9195184 0.7884679 0.7965934 0.77447784 0.8177875 0.8420814 0.84640616 0.8170508 0.7756747 0.83510375 0.8738635 0.8110361 0.70110273 0.7243507 0.82008356 0.8358559 0.8827598 0.785956 0.80420566 0.8328958 0.85892874 0.79619 0.79447544 0.81333745 0.78429365 0.8255525 0.87012774 0.9046854 0.82106763 0.85884285 0.9049428 0.79355186 0.84417075 0.8908837 0.89508134 0.8183193 0.71611285 0.7216929 0.70634425 0.6251095 0.711638 0.7229513 0.65757805 0.63556206 0.6959685 0.72052634 0.6034425 0.6783011 0.6694406 0.6605002 0.70038116 0.6907339 0.46040213 0.64723885 0.7822864 0.70608234 0.7198088 0.7470274 0.6931276 0.6838216 0.4974664 0.61759984 0.82789814 0.7996838 0.6746844 0.72002816 0.66891384 0.845315 0.807689 0.68602544 0.7495268 0.8071275 0.822604 0.73136777 0.7795364 0.52868795 0.49805334 0.5329667 0.5648324 0.44735065 0.39935365 0.61971384 0.6308692 0.5991794 0.5998938 0.51316583 0.52565026 0.59556377 0.6260987 0.5102047 0.57997674 0.41215086 0.5888293 0.6440588 0.59771687 0.39870632 0.69288343 0.6270044 0.6380955 0.64537656 0.43029195 0.69488454 0.55610955 0.6617147 0.6407116 0.6406652 0.6275153 0.16086295 0.37003982 0.27426186 0.2826747 0.3359615 0.24064958 0.50941133 0.5236966 0.52297837 0.30916998 0.30887264 0.30408403 0.18985125 0.46927997 0.5436457 0.35562587 0.37840548 0.4763028 0.52992463 0.5258661 0.47003475 0.48984438 0.57017523 0.32434243 0.56153953 0.5724834 0.57045 0.5719752 0.16703989 0.3142711 0.41368586 0.48156673 0.5681217 0.55116683 0.49101785 0.6492741 0.64549077 0.6150012 0.6222999 0.62198544 0.5578381 0.51733947 0.23129824 0.1958281 0.5590512 0.5121714 0.4732063 0.3626966 0.31647125 0.24083538 0.09973941 0.15056941 0.3879283 0.4182276 0.32711354 0.15028688 0.037789434 0.42469272 0.461919 0.471061 0.43651575 0.11363569 0.38071 0.46786693 0.47861838 0.30169705 0.31317568 0.33299592 0.21573824 0.24401465 0.4122857 0.48024863 0.42289528 0.38237715 0.30101076 0.118495114 0.31741682 0.38037813 0.16574258 0.40371108 0.35148454 0.3679784 0.30904588 0.49430037 0.56337494 0.74681133 0.74896985 0.83959687 0.86514074 0.8125591 0.86630994 0.66099995 0.66424334 0.63889897 0.5678904 0.652391 0.65300596 0.60867405 0.54359245 0.18578395 0.16709761 0.44415355 0.5543625 0.5154679 0.457839 0.40443528 0.33323172 0.2508037 0.17924047 0.14697254 0.030992359 0.46633294 0.4843706 0.44658875 0.5280195 0.48180604 0.37677336 0.5738485 0.5627252 0.046297833 0.28125215 0.2508364 0.2857137 0.5869974 0.5733163 0.21784161 0.38173318 0.52566254 0.42415726 0.24464607 0.18367048 0.14158906 0.08182615 0.31479222 0.27989674 0.12609515 0.27636057 0.20786841 0.18756983 0.15339851 0.19815673 0.2220951 0.26338944 0.24948545 0.3415674 0.40121296 0.7804018 0.5983057 0.68862176 0.86819315 0.71123195 0.8171025 0.87554693 0.88520944 0.8669308 0.6613182 0.6495968 0.6179253 0.13499503 0.11724043 0.10491866 0.57302296 0.55389667 0.52036405 0.2156204 0.18036559 0.14385825 0.09799769 0.02489362 0.48809963 0.47586137 0.4487426 0.37852517 0.3365978 0.5317396 0.48747057 -0.009219117 0.5608305 -0.20543237 -0.039203905 0.1749671 0.5730137 0.14579809 0.25650594 0.26896873 0.53238416 0.37841746 0.27593845 0.08763072 0.20092398 0.15151551 0.045318544 0.0897764 0.102759056 -0.054297663 0.09333478 -0.11497289 0.107779905 0.2279608 0.3728615 0.35588217 0.6213541 0.508194 0.52263814 0.82128215 0.79026854 0.7014742 0.78786063 0.8695948 0.86252666 0.816952 0.8591422 0.50839424 0.5414152 0.49871248 0.23172489 0.21444467 0.12870333 0.11156941 0.095243685 0.0130349025 0.35849375 0.401518 0.43315142 0.2108783 0.19266625 0.34461766 0.3877306 0.49999362 0.15349069 0.27506697 0.30569664 0.28305072 0.50374234 -0.07374735 0.18148941 0.2677748 0.2536757 0.50463206 0.22963424 0.21189058 0.1636953 0.2661737 -0.15916443 0.018310308 0.04811348 0.14997739 -0.42120793 -0.33062857 -0.03124772 -0.106237635 -0.2642233 -0.16431442 0.016127057 -0.05465783 0.12751345 0.23680615 0.43270093 0.46650192 0.6895131 0.5287301 0.6199959 0.8155837 0.78099924 0.7481095 0.8075493 0.85870004 0.8491901 0.805993 0.84170985 0.8480471 0.8609264 0.8129654 0.7308543 0.8166859 0.8018366 0.81708384 0.78506356 0.6810261 0.72629774 0.7405405 0.68390596 0.6278226 0.61845666 0.27968433 0.26769385 0.20927376 0.010533359 -0.053565796 0.30066442 0.2667395 0.2688278 0.26036635 0.24443752 0.00017400086 0.22432826 0.24377547 0.256463 0.16623253 0.20949417 -0.0035896674 -0.061838176 0.2815631 0.31004542 0.3035147 -0.0024573244 0.2776295 0.3008362 0.22911969 0.18631558 0.3583469 0.20478877 0.112427905 0.06829196 0.14047176 -0.06616017 -0.20781171 -0.22334655 0.37616777 0.3577586 -0.08345903 -0.23546307 -0.29303902 0.15326762 0.1523134 0.41395712 0.40425187 -0.054036163 0.13839827 -0.11817629 0.61159885 0.610558 0.50770414 0.3672413 0.21732537 0.290103 0.63276345 0.62698734 0.58623505 0.31930804 0.31922197 0.3354211 0.30954742 0.24589822 0.31342834 0.3239039 0.44055995 0.40008798 0.522679 0.48053938 0.5732043 0.68933535 0.7262471 0.695541 0.720198 0.8300264 0.7934498 0.69992566 0.44751072 0.45180953 0.860939 0.85662496 0.8124386 0.7300292 0.62530696 0.42821088 0.4878437 0.5604088 0.8303286 0.6803632 0.5980155 0.36628526 0.37893808 0.4654464 0.56065416 0.755617 0.75262856 0.6277045 0.563462 0.43317944 0.24977463 0.4734608 0.55619067 0.67024434 0.6922661 0.56437486 0.5330756 0.47605515 0.46653056 0.44635904 0.43415636 0.40039402 0.34303778 0.5681693 0.56389517 0.4953034 0.4565163 0.49238366 0.49459237 0.46717024 0.42448735 0.41990396 0.40884665 0.3490101 0.4739322 0.51332396 0.50927246 0.45076865 0.3657569 0.32003736 0.34329438 0.33526874 0.49536812 0.33533868 0.29701328 0.27162164 0.2725883 0.6493474 0.58562344 0.63164747 0.5841341 0.5183364 0.53782445 0.45073843 0.26991907 0.1365098 -2.8226059e-05 -0.102341056 0.2616645 0.28129816 0.028209217 -0.08548669 -0.05626718 -0.05150011 -0.060887575 -0.07805359 0.2546134 -0.08271076 0.18092014 0.02666834 0.15469892 0.14427152 -0.10494429 0.14698322 0.24180678 0.28734702 0.24592339 0.15728402 0.11681356 0.20522085 0.024290815 0.24818997 0.30109054 0.06880201 0.18711278 0.067133725 0.25486037 0.05575516 -0.0036912262 0.0615009 0.07408543 0.32378867 0.1482657 0.4333109 0.4016023 0.36705866 0.41604328 0.3719715 0.52393734 0.47062922 -0.2301749 0.4696164 0.4402146 0.5382019 0.5434563 0.1424383 -0.07004955 0.23269573 0.27101138 0.32271588 0.42588842 0.46065044 0.5645751 0.5912912 0.08455168 -0.08061173 0.5751122 0.6156377 0.6344006 0.5678164 0.44561797 0.28848445 0.17542091 0.62946457 0.6281402 0.55516005 0.47583804 0.28689772 0.29129303 0.26513445 0.28283408 0.2561953 0.2238209 0.17798382 0.17841929 0.33217055 0.49437094 0.5228889 0.61205935 0.44447482 0.43475163 0.4466672 0.8777244 0.86664355 0.78275096 0.661596 0.4552238 0.4450906 0.45768678 0.48354352 0.8615068 0.62431055 0.55602443 0.47393617 0.61081266 0.81363606 0.52220774 0.267892 0.38022447 0.61131704 0.6032398 0.7425872 0.4110229 0.42200813 0.40090615 0.3921438 0.40235648 0.30279693 0.2611916 0.37985784 0.5700023 0.5918782 0.5906915 0.63481605 0.6119465 0.4654929 0.44571155 0.2667853 0.38106066 0.4822424 0.51274157 0.4795117 0.1790438 0.1555211 0.19348724 0.4459477 0.2886001 0.25090462 0.26324448 0.54699415 0.4554353 0.0626302 -0.010033481 0.42141244 0.28569782 0.16436984 0.67885077 0.64041036 0.5616519 0.41867992 0.17410569 -0.077536106 0.01155257 -0.012931664 0.44854838 0.49581832 0.28834587 0.25664592 0.24051513 0.2217854 0.2113183 0.7332698 0.6906913 0.6164983 0.5166988 0.41398937 0.3158678 0.13426031 0.095250875 0.40038484 0.435204 0.2413095 0.22406042 0.20678473 0.20750412 0.7279261 0.67078406 0.44580004 0.37274742 0.26877582 0.103777915 0.11890862 0.026076734 0.7297139 0.6595614 0.54766476 0.3699632 0.30274597 0.06988548 0.05320576 0.051058553 0.23448949 0.036033586 -0.06775822 -0.032214463 0.03211276 0.0548651 0.42353022 0.44903523 0.56926185 0.57337886 0.6292723 0.28001377 0.19926238 0.11820775 -0.013607487 0.22845276 0.23315626 -0.009171981 0.002978526 -0.07199946 -0.08203453 0.45761818 0.5367725 0.60435325 0.6020175 0.58836746 0.30631158 0.28036547 0.23365112 0.1308889 0.14479792 -0.03615478 -0.07016184 -0.100755945 0.44929972 0.54327583 0.5309202 0.5573913 0.57830226 0.28143492 0.045794107 0.16623893 -0.08954349 -0.09342989 0.30579022 0.36380816 0.3875353 0.42321032 0.026223898 -0.2174577 0.16222954 0.23861551 0.29470676 0.27597755 0.09019291 0.15187322 0.20987166 0.08027765 -0.006367475 0.24743217 0.28304982 0.29776537 0.8537767 0.06789391 0.29988798 0.298042 0.2823768 0.7238033 0.8232708 0.89724666 0.851794 0.030052003 0.049354993 0.1619104 0.22433226 0.24370477 0.6351279 0.7471115 0.8130305 0.78452677 0.10483004 0.13478789 0.16974594 0.39252874 0.54051065 0.6484766 0.71458143 -0.009159431 -0.026122907 0.45519894 0.60111034 0.66064453 0.2967785 0.16174248 0.40983862 0.39773712 0.33164042 0.46093684 0.4103465 0.4699276 0.054377064 0.35661587 0.38854772 0.43663192 0.5167967 0.20626959 0.28781584 0.29557377 0.33746684 0.5612141 0.57065797 0.25484127 -0.029539738 0.58462447 0.6016629 0.49875173 0.3784818 0.22509104 0.254673 0.18485841 0.16436881 0.05520694 0.39061096 0.34624642 0.61000764 0.63869977 0.5829612 0.59054947 0.6067989 0.541399 0.5306459 0.555785 0.47563145 0.4748118 0.48301768 0.37590948 0.39584938 0.42676818 0.30582738 0.41517153 0.45310706 0.85857844 0.8583662 0.79941225 0.6181928 0.5183733 0.8069781 0.83540857 0.45304793 0.3806929 0.3004912 0.59238046 0.570428 0.77512145 0.7891076 0.30089274 0.27954245 0.29341882 0.24363865 0.6022347 0.59021187 0.2957538 0.24250023 0.26586935 0.29028866 0.3412856 0.2824684 0.5614785 0.5593331 0.50427413 0.40613794 0.4894648 0.518431 0.2730711 0.12984893 0.18483144 0.18868582 0.18197775 0.6582067 0.6397803 0.58986485 0.4335631 0.27248722 0.14943467 0.14381805 0.07171663 0.68841255 0.696886 0.41789335 0.2901832 0.119070016 0.055110734 0.015532874 -0.20277438 -0.02909661 -0.0025708824 0.11410109 0.7206496 0.09054407 0.08983017 -0.1590856 -0.124814935 0.39845136 0.25426176 0.17519179 0.18360135 0.13330092 0.73561656 0.7478525 0.0744092 -0.03120251 -0.2558908 -0.10195396 0.009654537 0.110579565 0.15029362 0.123480074 0.387584 0.49503872 0.76164126 0.0024128575 -0.006627515 0.03917004 0.31780103 0.4263801 0.50214076 0.5418843 0.540369 0.7140628 0.5976659 0.4323094 -0.089242384 -0.1179214 -0.1467662 -0.03780509 -0.015353441 0.29203877 0.38598377 0.5567172 0.30230454 -0.051201325 0.52687585 0.28648797 0.25895846 0.22394732 -0.20288137 -0.22428861 0.02668002 0.2331217 0.16647714 0.0445269 -0.21577033 -0.21214816 -0.19739965 0.28633618 0.27635118 0.0023776516 0.086317316 0.28968233 0.27697274 0.775048 0.914093 0.9553133 0.8744731 0.010624096 0.038949363 0.16920955 0.6785475 0.8242918 0.76805913 -0.15339506 0.16509522 0.751192 0.72567016 0.043117713 0.17587627 0.6916273 0.69268095 -0.07260835 0.033068188 -0.026009053 0.29381153 0.43907708 0.6297977 0.6602243 -0.002156388 0.13965471 -0.040955927 0.06300532 0.2408292 0.5399698 0.6072174 0.32871938 0.24733019 0.1311569 0.39757612 0.3371985 0.22412327 0.38072962 0.07951753 0.34287918 0.31400108 0.2753426 0.42160973 -0.39839742 0.21646845 0.47805497 0.35728604 -0.20956321 0.4676352 0.47656533 0.07256933 0.4080781 0.12676354 0.16613138 -0.008840423 -0.022624344 0.27957597 0.21615113 0.20509285 0.12840569 0.0064103734 0.5086234 0.34922954 0.26900357 0.24536927 0.18871911 0.7002536 0.28272766 0.2555258 0.2528077 0.6916576 0.6945204 0.6510431 0.6204958 0.6531739 0.6839872 0.557575 0.65433824 0.6251682 0.51687074 0.37868088 0.43286365 0.24347124 0.26318455 0.83424085 0.81604266 0.7257749 0.6243403 0.51920104 0.18894868 0.43720067 0.7941373 0.48233342 0.093929455 0.53158027 0.50409734 0.7723385 0.09947615 0.11049334 0.1865069 0.16374776 0.041979477 0.54943573 0.69793534 -0.0567161 0.059105232 0.1285693 0.50399864 0.40224975 0.42069596 0.47393745 0.5356955 0.3902197 0.3579159 0.34351763 0.2396572 0.26872444 0.23897481 0.5478365 0.5675893 0.46187246 0.31495458 0.03769311 0.06518231 0.6562336 0.5778326 0.01693543 -0.10236479 0.63494605 0.34091353 0.07005339 0.7132896 0.7000594 -0.18405105 0.04973359 -0.100798234 0.24232547 0.35500714 0.42811036 0.39373258 0.31519052 0.75154614 -0.31466627 -0.30750155 -0.13613924 -0.11972233 -0.1344765 -0.08400673 -0.03286503 0.158696 0.29171127 0.46134868 0.7413081 0.7109603 -0.22485498 -0.22635941 -0.17793731 -0.092277266 -0.060666297 0.4489134 0.67579925 0.56760633 0.32046926 0.27750942 -0.39736468 -0.33185524 -0.12537527 -0.06937874 0.44184303 0.2558047 0.26791796 -0.27336657 -0.27247548 -0.26278275 -0.108187295 0.21725008 -0.10787615 -0.014349446 0.005191937 -0.20618793 -0.07449478 0.74275064 0.909925 0.9321251 0.8645729 0.1562777 0.105335705 -0.23767458 0.40380207 0.78171027 0.7562852 0.23415226 0.21703444 0.20958936 -0.34817678 0.6717917 0.70850825 0.2512322 0.24792504 0.21402848 -0.5850899 0.6482016 0.6607789 0.20357923 -0.55032784 -0.19291489 0.62355673 -0.1410347 0.14455596 0.579033 0.11689407 -0.11338649 0.21000959 0.28826833 0.39414722 0.29067224 0.02754765 0.2698227 -0.4969746 -0.364601 0.20504355 0.19475776 0.23960663 -0.5317971 -0.52065367 0.04951276 0.059017964 0.12625608 0.07909942 -0.45398602 -0.025205325 0.0940058 -0.18298468 -0.13346213 0.31406832 0.26409987 0.34665132 0.040699378 -0.02826181 0.5894648 0.367283 0.3988881 0.4236758 0.44575304 0.15043104 0.03352256 0.4520955 0.54321474 0.4945574 0.5956631 0.55985713 0.3238533 0.297637 0.25754523 0.26017532 0.2344918 0.5851115 0.6517856 0.6785655 0.62929964 0.561141 0.69155645 0.64001864 0.4731172 0.39932364 0.3677253 0.3485595 0.3109552 0.61489004 0.677708 0.6871613 0.65691316 0.6445879 0.49996543 0.44432902 0.79869205 0.69272006 0.67299044 0.7628921 0.7290052 0.68447673 0.62259585 0.6699312 0.698426 0.63861144 0.7366782 0.66262233 0.6059598 0.5347429 0.58753765 0.52254605 0.6051971 0.3490909 0.18984196 0.20908064 0.082395226 0.11968945 0.1512127 0.7430365 0.6830073 0.00962992 0.17135023 0.74124026 0.7287042 0.6262398 0.5701134 0.4900128 0.32590023 -0.0738603 0.32923406 0.47700626 0.6789303 0.28256464 -0.06287901 0.051737767 0.0489831 -0.12417333 0.67979145 0.5571636 -0.065447584 0.31449968 0.23843329 0.4500528 0.4267646 0.4074142 0.38432243 0.18299975 0.43805856 0.4466672 0.42363063 0.10198723 0.53416884 0.4367085 -0.07656479 0.028820653 0.5996075 0.015496343 0.13469444 0.6901276 0.65367836 0.2713132 0.225264 0.7469617 0.2749659 0.28774223 0.73872143 0.7233316 0.36784494 0.6623061 0.6322453 0.44356796 0.26696706 0.20147327 0.2602893 -0.019542307 0.87197244 0.04174074 0.34812614 0.5270277 0.7485842 0.87636536 0.8516465 0.20841432 0.19680206 0.76164687 0.7330103 0.3003145 0.24657898 0.6628672 0.69472086 0.23561773 0.22059143 -0.10870883 0.5767454 0.1958154 0.19773133 0.22914213 0.12556943 -0.09317407 -0.63684154 0.51481545 0.15700454 0.21114838 0.05566284 0.47483912 0.19899401 0.13387088 -0.030282313 -0.32780105 0.37931854 0.50377536 0.3787097 0.20346034 0.1450307 -0.070015214 -0.13892344 0.13004267 0.24266723 0.6760024 0.49684033 0.27734372 0.022772629 -0.24101634 0.0026839077 -0.05477456 0.7104485 0.03955832 -0.59914476 0.08694747 -0.025315959 0.14611937 0.14142013 -0.4957013 -0.44941172 0.066398196 0.07553558 0.1209895 0.097708575 0.5975063 0.60026157 0.26282528 0.21816559 0.14957531 0.18473151 0.15906012 0.09836875 0.12424456 0.14977458 0.23620081 0.18506867 -0.08722058 0.2507791 0.2698231 0.40707257 0.3425881 0.437275 0.034579158 0.40485483 0.375358 0.6736976 0.6242878 0.28286442 0.2049668 0.5618769 0.5552442 0.428209 0.7203999 0.72520447 0.3965448 0.39165366 0.34056264 0.615796 0.65169334 0.6624018 0.6389042 0.54500574 0.7245805 0.667464 0.56831867 0.49694753 0.4657662 0.4613732 0.44907212 0.63311696 0.62277305 0.5976715 0.5346933 0.52081573 0.514629 0.8118579 0.7913793 0.72910404 0.8329177 0.8244224 0.8058977 0.6714814 0.6474544 0.6105071 0.8222898 0.8111665 0.62479246 0.5878624 0.54316473 0.7706506 0.7309182 0.5011177 0.40391588 0.46889728 0.6782616 0.5984581 0.53500986 0.37150693 0.34875485 0.40308416 0.1697549 -0.28906626 0.003379677 0.13123041 -0.021248467 0.06806041 -0.24314055 0.5927063 0.55462515 0.48786092 0.41306406 -0.22642866 0.56732535 0.414586 0.30903468 0.36703387 0.047683183 -0.15938272 -0.22340429 -0.1116266 0.3892011 -0.07838108 0.19899942 0.27813762 0.14380746 0.13997361 0.2516111 0.38440722 0.3868793 0.36798906 0.3256817 0.20778795 0.38739538 0.36595315 0.10515904 0.120327994 0.4114108 0.35541266 0.04352124 -0.12600403 0.0537151 0.19659105 0.55780125 0.46113312 0.12254137 0.6831628 0.6416256 0.13298267 0.17480978 0.72258174 0.20867258 0.69705456 0.5999194 0.4781308 0.25967908 0.2172351 0.17467135 0.34984842 0.2754511 0.03824334 -0.34794065 0.4456526 0.48716646 0.4121729 0.40780228 0.31482494 0.08394818 0.38549876 0.48195162 0.8174469 0.42241055 0.4007758 0.70450544 0.60679555 0.34053266 0.24574295 0.43761224 0.16473013 0.4360531 0.10451808 0.2979105 0.31427294 0.79375947 0.62500966 -0.072660476 0.21581098 0.84592557 0.7645128 0.51051 0.2026892 -0.17801118 -0.14527267 -0.12751466 0.44597477 0.51790696 0.8654641 0.7682378 0.6057048 0.34407872 0.23299982 -0.16206679 0.54328835 0.5630255 0.58943367 0.5902804 0.6563512 0.028507344 -0.06663646 0.51124144 0.5713272 0.59606147 0.62342143 0.6362641 0.2702585 0.12693134 0.08920601 0.537724 0.5636983 0.6103391 0.6380265 0.32197136 0.29708087 0.19241905 0.10409482 0.005285196 0.54500717 0.5887262 0.19047749 0.5058924 0.33580482 0.6671433 0.13295843 0.49813706 0.3982708 0.7134001 0.40315175 0.5372895 0.58534837 0.5657642 0.5836626 0.47038132 0.4207642 0.6976062 0.6986592 0.65221894 0.5180837 0.49046683 0.613273 0.6162316 0.65464735 0.6400395 0.5765072 0.5650073 0.5548762 0.53474224 0.804765 0.7704333 0.7288046 0.67634547 0.8346672 0.82485896 0.62335676 0.6294924 0.6119726 0.5928711 0.8204164 0.5862497 0.562727 0.5369419 0.74739134 0.4975681 0.66553223 0.44865203 0.46277836 0.3778939 0.31583112 0.37232664 0.092963375 0.17027625 0.17048542 -0.28935447 -0.2674304 -0.19644561 -0.14216718 -0.12336883 -0.124619864 -0.26632163 -0.0067365617 0.03934011 0.0844472 -0.20501871 -0.26696044 -0.00075360015 -0.061281078 0.14486936 0.13025454 0.12141582 0.2346842 0.26049647 0.21445821 0.12352705 0.1289712 0.27943927 0.3315975 0.32981017 0.3302979 0.22033602 0.39462972 0.34923795 0.30366182 0.26477364 0.29755 0.3684131 0.45030198 0.30685958 0.23803064 0.30954397 0.3526897 0.5229946 0.28938803 0.6729852 0.36763337 0.1319353 0.09368021 0.057247356 -0.06712444 0.08119722 0.46953034 0.40537807 0.4495164 0.52648056 0.26297325 0.20242834 0.3857898 0.43676156 0.35534573 0.19204499 -0.4450012 0.40062255 0.021308286 0.12761506 0.6596652 0.35844162 0.40088505 0.36462462 0.34977815 0.23782714 0.16751707 0.15136674 0.15379882 0.5645696 0.8005929 0.78655744 0.052825697 0.84521717 0.8693894 0.8967426 0.85625327 -0.20683374 -0.18771403 0.5939385 0.8205723 0.63466495 0.21708791 0.20208281 -0.15292609 -0.20168151 0.6615243 0.2071201 0.00025644898 0.30860466 0.39920375 0.6622496 0.278696 0.20689234 -0.072606914 0.04566805 0.40969977 0.44520837 0.53850263 0.62738514 0.6522738 0.19225073 0.063806646 0.032807313 0.060432978 0.080068626 0.36723232 0.2619049 0.19924572 0.6527988 0.120366186 -0.022641033 0.088660404 0.16391928 0.33121315 0.32139182 0.63588774 0.38713506 0.4618371 0.4930271 0.50558895 0.39093822 0.36156917 0.6375989 0.6066871 0.491948 0.4886192 0.4679662 0.45348653 0.5663403 0.5220407 0.5530061 0.5537875 0.53046036 0.79390574 0.7744923 0.71473247 0.65916085 0.82264245 0.53911746 0.5575502 0.55872816 0.59065473 0.5908442 0.7558291 0.37308523 0.46897617 0.59652185 0.5800314 0.5989012 0.5397367 0.5235465 0.47317857 0.34017393 0.2910559 0.04099942 0.30443564 0.15110798 -0.19336577 -0.36976847 0.22287905 0.2265059 0.04775598 -0.16358072 0.048768878 -0.30540973 -0.26753685 0.0334713 -0.0026448444 0.13083474 0.12907791 0.09881066