# vtk DataFile Version 2.0
Really cool data
ASCII
DATASET POLYDATA
POINTS 7772 float
28.314697 55.97514 3.0504732
28.180744 55.787033 3.6890254
28.235817 55.73132 4.291268
28.251085 56.358803 3.0929883
28.100536 56.342037 3.6012058
28.096 56.408897 4.2768545
28.309431 56.617096 4.9089875
28.259523 57.2703 3.7487042
28.253485 57.23263 4.248377
28.91622 55.230522 2.8228092
28.780558 55.053337 3.432945
28.826263 55.1328 4.5049944
29.08648 55.25488 5.0432706
29.203156 55.591183 2.1429787
28.739216 55.567234 2.7235773
28.470367 55.357742 3.4785783
28.47266 55.412487 4.44737
28.746832 55.791542 5.213355
29.059137 56.093117 5.8906245
28.942165 56.426865 2.1430373
28.545677 56.44089 2.5976186
28.55422 56.458652 5.352779
29.175222 56.947124 6.973519
28.834398 57.05356 2.4411948
28.504103 57.699226 4.640546
28.644344 57.55246 5.5983806
28.857376 57.50317 6.286065
29.171051 57.263805 7.068804
29.163504 58.47048 2.7952785
28.893526 58.270096 3.2321208
28.813889 58.476124 4.503544
28.805794 58.062702 5.6889887
29.095152 58.281193 6.261686
29.227001 59.209667 3.7504985
29.984493 54.217983 3.5998244
29.952652 54.249454 4.391615
29.86449 55.185406 2.222387
29.646988 54.763653 2.7826867
29.455801 54.587536 3.5691757
29.492403 54.63897 4.477864
30.162928 54.93988 13.751739
30.11558 54.987804 14.256617
30.293749 55.053738 14.91927
29.500834 55.696842 2.0492978
29.89736 55.689026 6.379809
30.290857 55.609932 7.297308
29.84872 55.683685 13.686226
29.803024 55.626526 14.405864
30.034054 55.784714 15.017881
29.597649 56.294975 1.7766845
29.474367 56.649136 7.054073
30.013424 56.020668 13.218862
29.781015 56.36719 13.797168
29.706703 56.30589 14.415071
30.052313 56.397648 15.15648
29.502449 57.344288 7.397034
29.878944 57.59651 7.678748
30.23189 56.90656 13.306662
30.042704 56.93469 13.722582
29.965178 57.12121 14.43143
30.233849 57.45196 15.097941
29.450272 58.591793 2.7051227
29.642838 58.33016 7.299025
30.312046 57.84479 14.742401
30.43021 58.062122 15.052872
30.301525 59.49938 1.7998646
29.802664 59.670185 2.9062774
29.494219 59.30022 3.1882296
30.088133 60.171097 2.7508998
30.082142 60.13757 3.7294672
30.034985 61.889828 5.478026
29.9278 61.653103 6.180116
30.021822 61.564014 7.256311
30.065422 61.898235 8.277754
29.977869 62.529205 5.758822
29.946655 62.72917 6.278904
29.900175 62.462692 7.683195
30.020836 62.51398 8.324213
30.23299 62.495274 8.850782
30.230589 63.37073 5.7305403
30.101757 63.261925 6.357049
30.109007 63.223377 7.423515
30.185423 63.133865 8.3951235
30.305231 63.725327 6.2611446
31.41783 51.89815 12.896469
31.29 53.0529 11.951838
31.224854 52.869247 12.668033
31.1983 52.711014 13.742543
31.246035 52.96146 14.3501005
30.602112 54.231907 3.1185684
30.676338 54.030838 3.640145
30.356993 54.115574 4.4520097
31.127167 54.20265 7.470362
31.315329 53.268505 12.330113
30.809032 53.77359 13.614967
31.037706 53.55899 14.358638
31.329693 53.296593 14.845173
30.130888 54.952583 2.34872
30.428349 54.510555 2.7672174
30.396141 54.848885 5.645613
31.097576 54.62427 6.6892233
30.803902 54.847923 7.5865097
30.986162 54.628204 8.240909
31.265308 54.672745 11.609742
30.464722 54.835648 13.076316
30.416937 54.539486 13.8972
30.546843 54.57381 14.524172
30.755196 54.78532 15.113951
30.395874 55.5579 6.7159033
30.438988 56.031998 7.667616
30.708498 55.489574 8.311897
31.334715 55.586956 9.383374
30.549425 55.57168 12.781795
30.464792 55.515766 15.365088
30.751781 55.90655 15.707481
30.378912 56.83847 1.3535165
30.17918 56.53023 1.7040521
30.565264 56.61402 8.408746
30.988234 56.578194 8.796052
30.427872 56.206917 12.933512
30.461115 56.320374 15.529505
30.745253 56.53033 15.83463
31.12041 57.89714 -0.18831968
30.83681 57.631428 0.61538184
30.64729 57.05568 13.26268
30.398369 57.070217 13.400754
30.81225 57.445076 15.903844
31.251745 58.95373 -0.78817755
31.030901 58.474804 -0.3116411
30.657293 58.19502 0.33239198
30.86402 58.058098 8.566011
31.281313 58.539463 8.890239
30.705378 58.061714 13.997907
30.63061 58.393017 14.764469
30.78345 58.343494 15.457955
31.091007 58.062393 16.019396
31.261295 59.278934 -0.7771209
31.057539 59.383068 -0.32467106
30.772339 59.51564 0.8586277
30.567976 59.279194 1.3815291
31.016495 59.190144 8.349263
30.969381 58.749363 14.644631
30.915417 58.792046 15.056172
31.301254 60.005768 -0.29422203
31.215364 60.206593 0.32438573
30.42816 60.219326 2.2093527
30.558657 60.63175 2.3919747
30.602978 60.51981 7.463023
31.071806 60.45407 8.906944
31.042995 60.71651 2.156378
30.76741 60.829594 2.4370646
30.375898 60.698833 3.1644974
30.738464 61.269543 4.656946
30.919605 61.741676 9.33747
31.080376 62.8268 4.5559196
30.464443 62.608868 9.091421
30.722738 63.262856 5.0423923
30.451288 63.452114 5.36924
30.3864 63.542473 7.528927
30.62204 63.528336 8.666478
30.68752 63.291294 8.993396
31.008184 63.69875 5.1860414
30.796104 63.934166 5.751686
30.718695 63.975166 6.289054
30.690681 63.89994 7.632002
30.880398 63.874943 8.258592
30.95584 63.681503 8.919647
32.47741 46.828102 4.955869
32.383163 46.470684 5.6844854
32.372894 46.56208 6.1387696
32.44389 47.21536 6.347647
32.34273 49.041153 7.767781
32.087193 48.838688 8.756452
31.843916 49.090168 9.432317
32.0354 48.939278 10.194891
32.168255 49.494823 7.9694395
31.686056 49.600235 8.695066
31.587456 49.63546 9.505995
31.751709 49.50523 10.273486
32.079235 49.90378 11.194017
31.948936 50.42927 8.103264
31.5408 50.26238 8.988105
31.618362 50.787987 9.6282625
31.659332 50.29994 10.219989
32.079178 50.564045 11.614945
31.887262 50.83024 12.450023
32.078106 50.940807 13.389678
32.14165 51.14749 13.961599
32.210606 51.378906 8.166935
31.915823 51.409046 8.513305
31.580812 50.98134 9.574707
31.803411 51.24032 10.51189
31.68627 52.00521 11.958674
31.581385 51.62842 12.505015
31.59584 51.738422 13.5294695
31.948217 51.808735 14.288618
31.981102 52.110195 14.710725
32.329082 52.49263 7.179623
31.909283 52.873928 7.7824254
31.931126 52.801437 8.181958
31.935041 52.807304 11.138201
31.498302 52.625023 14.483643
31.920425 52.72014 14.90571
31.400936 54.21665 3.3715334
31.196514 54.15446 4.577028
31.704178 54.21222 5.182478
31.833393 53.836487 6.6954556
31.60784 53.487656 7.8653946
31.563128 53.555214 8.298071
31.776604 53.72 9.421139
31.614368 53.424965 15.124647
31.22044 54.626152 2.6063693
31.34053 54.292854 15.019007
31.539669 54.682278 15.651049
31.882912 55.44844 2.222111
31.556982 55.134937 9.508049
32.065907 54.89909 10.499287
31.485016 54.923542 11.403732
32.157593 55.70875 16.302732
31.748856 57.162205 -0.2614144
31.832664 56.836166 0.8446066
31.090525 56.431675 1.6796653
31.964571 56.798607 9.355289
32.074776 56.117043 11.788224
31.621042 56.459274 16.268648
32.13406 56.991287 16.574446
31.745228 57.3791 -0.676391
31.765392 57.773518 13.110816
31.695086 57.377136 16.368557
31.876589 58.711823 -1.2507701
32.072914 58.063618 9.549866
32.017662 58.90983 9.617999
31.804338 57.95178 13.155423
31.434847 58.216976 16.179928
31.686909 59.548626 -1.0311222
31.696894 59.641205 9.331646
32.236713 59.788746 9.899415
32.442413 59.952877 12.82572
31.942593 58.99905 13.846975
31.902905 59.27545 14.694692
31.763714 59.18953 15.284892
31.570261 58.746876 15.879838
31.934982 60.07217 -0.87821233
31.693983 60.279835 -0.37826115
31.609852 60.416172 0.18179566
32.271893 60.830135 11.562479
32.390068 60.573013 13.539956
31.965164 60.621567 -0.056291044
31.813688 60.758484 0.6993583
31.809444 61.025154 1.6286184
31.522942 61.119488 2.428279
31.330408 61.32065 3.4327924
32.107983 61.420414 12.398126
32.06629 61.308735 13.906724
32.100845 61.52562 14.675787
32.30154 61.543247 15.235095
31.450329 61.92839 4.021169
32.200504 62.121593 12.559346
32.289993 62.0488 13.431559
32.325966 62.19718 14.50242
32.339172 62.041645 15.131978
31.373165 63.3556 4.7922783
31.466896 63.388794 9.416963
31.35245 63.77213 5.162903
31.403187 64.11728 5.750384
31.652185 64.33051 6.470991
31.80608 64.34886 7.5584245
31.670225 64.15479 8.366453
31.587564 63.873714 8.987884
32.08411 64.517296 6.9955163
33.255733 45.19405 4.9431334
33.052383 45.212406 5.6861377
33.09594 45.214176 6.2745037
33.018276 46.138405 3.7779522
32.916866 45.83887 4.6533337
32.730247 45.691536 5.59859
32.72897 45.792057 6.3797436
32.884563 45.827797 6.938742
33.32398 46.144913 7.852697
33.14606 46.610992 3.1302447
32.861607 46.561996 3.6326442
32.725483 46.503277 4.3858624
32.51119 46.203876 6.7328515
32.81352 46.574234 7.238206
33.111206 47.26658 3.064262
32.82803 47.301224 3.6172655
32.577023 47.138256 4.2960296
32.494976 47.14641 5.3386917
33.016388 47.212765 7.4535594
32.43745 48.380146 9.730955
32.598152 48.327847 10.216221
32.880623 47.984283 4.365855
32.82055 47.80199 5.5575376
32.922848 48.227554 6.241024
32.764507 48.23216 7.7022977
32.494823 48.648643 10.69831
32.569595 48.674683 10.819402
33.198593 48.95625 12.6864395
33.30052 48.904175 13.253581
33.07086 49.062084 6.920872
32.516506 49.856316 7.6507554
32.73199 49.64593 12.368868
32.850285 49.77204 13.383826
32.759045 50.249016 13.845521
32.554955 50.30328 13.619461
32.963573 50.87903 14.580713
32.91242 51.0864 14.734076
32.911007 51.7091 6.991034
32.518776 51.669716 7.680625
32.42994 51.28847 14.321006
32.9592 51.47564 14.945485
33.363354 52.93326 -3.5419464
32.921257 52.527153 6.5313797
32.534584 52.53718 15.228756
33.34056 53.563923 -4.075424
33.3003 53.62101 -3.6863618
31.882278 54.31691 3.7758398
32.687454 53.490574 6.0837936
32.556873 53.60979 15.413239
33.429256 53.937557 -4.1095057
33.37178 54.04598 -3.6690376
33.452538 54.479393 -0.6258111
31.997202 54.912548 2.7545345
32.88593 54.990814 3.3194404
32.50668 54.882687 15.959871
33.416664 55.208153 -0.5591157
33.0694 56.053017 0.8650331
32.439407 56.005978 1.6983137
32.33088 55.493225 2.5362236
32.58885 55.7382 16.477331
32.802086 55.970963 16.666992
32.52308 57.199368 -0.9289079
32.543964 56.34209 11.814086
32.739132 56.48981 16.783567
33.04632 57.551975 -1.7600783
32.600746 57.50855 -1.5247062
32.54902 57.237095 9.639101
32.590218 57.454117 12.672219
32.546658 57.74558 16.499447
32.333324 57.559753 16.599937
[...]
POINT_DATA 7772
SCALARS features_00 float 1
LOOKUP_TABLE default
0.6726432 0.6790543 0.6545141 0.6659144 0.66665745 0.6327528 0.55295944 0.5927557 0.56549644 0.6560335 0.6771004 0.62207896 0.51761866 0.5934925 0.65450424 0.6814142 0.6410855 0.50887406 0.37117428 0.5879452 0.6429703 0.49103865 0.31065428 0.5988413 0.49183238 0.44584677 0.39382106 0.3190422 0.325077 0.420817 0.42622977 0.41784644 0.36005542 0.27232665 0.60352683 0.5652829 0.54911405 0.6223457 0.6507354 0.5913719 0.5772126 0.5701076 0.5273289 0.55519664 0.23076208 0.17700933 0.69062924 0.6819507 0.6460706 0.49722996 0.27235442 0.6507734 0.7170267 0.75216734 0.7074427 0.27636427 0.22690591 0.6038032 0.676209 0.71980894 0.69148254 0.27342108 0.26845953 0.6449888 0.6226187 0.24979714 0.20657028 0.23204768 0.20482907 0.17878649 0.5056181 0.52679 0.5269922 0.53350776 0.56777567 0.5931412 0.58691007 0.5829337 0.5756136 0.61008716 0.6217843 0.6171588 0.5983859 0.6367469 0.28715724 0.21680275 0.28704643 0.31357467 0.31573883 0.5370796 0.52602994 0.5258352 0.109565094 0.2579651 0.34756407 0.3409553 0.32442802 0.5382397 0.54477346 0.30852735 0.090400994 0.1292969 0.14446683 0.1534015 0.49063572 0.4793216 0.46006522 0.44371462 0.17014074 0.20872512 0.19108854 0.1390185 0.52374446 0.54137576 0.52816314 0.29389122 0.40076306 0.19693756 0.16382235 0.54941154 0.63130355 0.5903256 0.4134912 0.2763438 0.51974326 0.5879251 0.62174386 0.5686099 0.50953627 0.42594314 0.07527063 0.004136212 0.56652856 0.5703201 0.5709031 0.5576137 0.5753095 0.5441934 0.4142211 0.3271184 0.03494197 0.5217122 0.52772796 0.5309456 0.45952412 0.24401942 0.2312456 0.33811447 0.12794757 0.2674415 0.22557268 0.17885685 0.27126205 0.429983 0.504774 0.5752976 0.5661705 0.5951464 0.6216635 0.59245044 0.5882603 0.5920307 0.6243317 0.6360245 0.6126038 0.5837256 0.5776006 0.6233771 0.6008138 0.5610219 0.46250027 0.2249627 0.39445722 0.44139546 0.39461213 0.25540712 0.37336707 0.42904946 0.3999322 0.27967483 0.23330474 0.35747555 0.33720604 0.36443812 0.20358144 0.22349265 0.26323134 0.261142 0.14024621 0.16962138 0.31009626 0.21383297 0.19523239 0.24820726 0.2923269 0.27761462 0.28516585 0.026995197 0.056867152 0.05071065 0.08977144 0.30632764 0.30174848 0.4290496 0.42812574 0.20892037 0.057268873 0.08155212 0.088032044 0.09486364 0.31198284 0.4312858 0.35480103 0.34212902 0.28769553 0.091850206 -0.12732561 0.11657085 0.3619882 0.32060885 0.13007095 0.26494047 0.10357088 0.221535 0.46356913 0.40984792 0.40309936 0.28773093 0.47387362 0.59080833 -0.011304408 -0.066749066 0.29288802 0.49757564 0.59023494 -0.060872342 -0.16658083 0.096521676 0.33208936 0.38964766 0.4148698 0.45404607 0.5681809 0.5342494 0.47787464 0.088472575 0.2816931 0.4951584 0.4228311 0.34543657 0.24070403 0.15848789 0.35450545 0.3799131 0.42114717 0.461754 0.29882926 0.4251421 0.4445026 0.48403895 0.5108938 0.54801583 0.5254451 0.5872968 0.6128637 0.5838673 0.5118405 0.5108919 0.5183517 0.5193707 0.6294279 0.63652086 0.6072699 0.68316436 0.66075945 0.6430272 0.59503704 0.54729426 0.43307555 0.7041043 0.7130553 0.6792233 0.55250514 0.48849654 0.6961237 0.7068872 0.66496414 0.5512416 0.40674394 0.37571245 0.30470073 0.5646476 0.42711586 0.2837996 0.20862208 0.28898185 0.2703026 0.21238048 0.25763005 0.082229346 0.1648293 0.20675406 0.26342663 0.2598763 0.25862437 0.2365704 0.23163673 0.002086863 0.073578306 0.2537246 0.226385 0.6584686 -0.064367235 0.27281612 0.6597458 0.6375059 0.34585136 -0.11245644 0.24207462 0.63850665 0.60592777 0.24561803 0.3104868 0.13088731 0.24995477 0.13044804 -0.1187353 0.08999886 0.23131588 0.31595668 0.3091715 0.36261934 0.1613798 0.33330226 0.46473378 0.4614793 0.04023744 -0.017886326 0.3502951 0.38049448 0.5520916 -0.11381246 -0.22519681 0.26623422 0.30860615 0.5538806 0.57119286 0.0049811117 0.28090158 0.33732793 0.55270267 0.51970077 -0.18861333 0.32532024 0.239131 0.5000787 0.43993765 0.34919852 0.29771018 0.46403491 0.5236032 0.41609293 0.450867 0.51548475 0.5585313 0.5826036 0.55476165 0.34450352 0.38855577 0.50532234 0.56481946 0.551629 0.5242343 0.47260875 0.418575 0.37615338 0.50620586 0.47654542 0.56970114 0.58728665 0.6121582 0.59622234 0.506999 0.3754554 0.62830484 0.60234165 0.6187451 0.48314315 0.34989858 0.77179855 0.8425375 0.64373076 0.41649634 0.1476908 0.6403509 0.736749 0.8332354 0.8926964 0.6128491 0.13832559 0.11556379 0.20050138 0.60763264 0.6591578 0.8093556 0.86015093 0.5766385 0.5329174 0.48357883 0.20877936 0.26046732 0.2825656 0.3040859 0.13307498 0.26912448 0.25854415 -0.14413929 0.22904477 0.6441511 0.5951315 0.51871586 -0.11671165 0.17868584 0.67691374 0.6807177 0.6592486 0.59494126 0.3855732 0.33040828 0.31058264 0.25563842 -0.1356301 0.17622897 0.6675228 0.66696656 0.47533375 0.3069198 0.3154844 0.19530064 -0.43183747 0.15269905 0.6405591 0.6190337 0.56432235 0.5085875 0.27196935 -0.15899086 -0.05788342 0.13557184 0.28388864 0.1226439 0.17074268 0.24329881 0.22583133 0.47203493 -0.21110487 0.13492407 0.4722724 0.52825916 0.1119894 0.5026658 0.4431541 0.36186776 0.4269502 0.38375527 -0.004678499 0.46234986 0.25042295 0.5639515 0.24964043 0.25892016 0.06839212 0.09761995 0.27681613 0.3716792 0.46896967 0.51906306 0.54924417 0.41918778 0.4743817 0.4002659 0.36916196 0.1886054 0.43350217 0.42354453 0.47786123 0.5329852 0.55038685 0.43300927 0.3404488 0.8174106 0.93149376 0.47101772 0.46669376 0.25329754 0.18716802 0.6011034 0.6612004 0.7398877 0.89195734 0.96523994 0.5474677 0.093269505 0.0046764035 0.5728133 0.63829064 0.9179286 0.91508555 0.35172766 0.51754767 0.01638305 0.105641305 0.22363812 0.22934824 0.5348662 0.563768 0.86192226 0.87549615 0.28772265 0.39409876 0.25098407 0.50043994 0.5532317 0.67600894 0.7780956 0.24593279 0.44769627 0.4985788 0.47820777 0.18438494 0.3274223 0.37985942 0.3653482 0.614391 0.547318 0.39657995 0.25819945 0.24541236 0.23114336 -0.14865582 0.12548548 0.38888925 0.47358108 0.50783026 0.38733655 0.27558798 0.6383761 0.6625409 0.3223803 0.19572496 -0.23598194 -0.021702312 0.49021217 0.54835933 0.554484 0.3926267 0.62719214 -0.24842842 -0.12523195 0.39376885 0.44127145 0.49966505 0.6118228 0.092511944 0.3853999 0.4299726 0.571733 0.4565373 0.102144375 0.076287374 0.11603199 0.24694586 0.035091355 0.56570804 0.57313573 0.35314626 -0.0014962405 0.6061541 0.64685917 0.44231373 0.3404276 0.3078205 0.313464 0.21810907 0.09325019 -0.2927732 0.27293712 -0.042587943 -0.026331745 0.42964327 0.17092516 0.11106303 0.22530302 0.3277692 0.43061608 0.44490063 0.3849555 0.19266805 0.11137839 0.038949825 0.05988863 0.19502714 0.3914588 0.35280073 0.38865098 0.44739705 0.368585 0.29287958 0.7305825 0.8531678 0.9144162 0.9340387 0.30028486 0.19730149 0.070662305 0.5557922 0.63136077 0.9487165 0.92349476 0.38598692 0.40246138 0.057303745 0.012611015 0.083298996 0.12227122 0.20052758 0.43336308 0.91097194 0.37587023 0.37361297 0.16235249 0.38141465 0.8201481 0.87213326 0.29678825 0.13996325 0.084711805 0.27616608 0.7406198 0.26137683 0.1498163 0.18731041 0.12609363 0.12878671 0.19609508 0.17938665 0.3608429 0.2921186 0.34835297 0.50658107 0.49191487 0.43693542 0.3266305 -0.06920943 -0.090445556 0.14712545 0.2910437 0.25268275 0.19018579 0.21838 0.24518636 0.3020855 0.07543345 0.5462618 0.5528645 0.252594 0.12499434 0.17464747 0.1289394 -0.27073988 0.21442975 0.21271254 0.28439084 0.12856486 0.5008528 0.5278784 -0.0028046407 -0.098943874 0.15058537 0.13272937 0.24724992 0.44315147 0.20290266 0.52005076 0.5349946 -0.2659825 0.021662764 0.06441286 -0.0021614432 0.16214292 0.41146296 0.2960465 0.5192893 0.5537623 -0.20689176 -0.002546955 0.3373746 0.37940136 0.41484118 -0.18406679 0.030756157 0.010466814 0.09695011 0.024559662 0.08553819 0.17469764 0.32542327 0.32614648 -0.05357734 -0.00401552 0.03984075 0.47418612 0.47865057 0.4852432 0.07055197 -0.03602927 -0.12916726 0.44612908 0.49197993 0.57931125 0.65364313 0.60434765 0.23592627 -0.10319975 0.5437507 0.61014175 0.6774926 0.6930277 0.6379403 0.17715333 0.10797152 0.06304978 0.01511253 -0.13684395 0.5360852 0.5990944 0.67988133 0.67886984 -0.42799428 0.12748443 -0.15650412 0.013992585 0.15167142 0.06734189 0.037030503 0.22836262 0.12819806 0.28061432 0.047143538 0.033029065 0.03195867 0.04848593 0.030175656 0.16550678 0.21856494 0.37302715 0.27329913 0.32486063 0.3999308 0.35876933 0.26303303 0.5985019 0.7879814 0.81351376 0.8236983 0.43605334 0.2364384 0.18386205 0.17035477 0.06491802 0.09702134 0.05718147 0.096096024 0.19859897 0.2319328 0.2578558 0.37988687 0.42171103 0.787187 0.8075184 0.46787107 0.4743714 0.027294949 0.06986238 0.18226238 0.21820077 0.25142455 0.21541056 0.3178949 0.8291775 0.41788614 0.22580105 0.20290919 0.13863939 0.8121282 0.35200244 0.15099916 0.1331112 0.037553854 0.026556712 0.038961057 0.7189662 0.2739305 0.2354714 0.07819539 0.119613804 0.090155676 0.10141973 0.073658004 0.23181832 0.41730058 0.43522197 0.39172888 0.19199802 -0.16889855 0.0749955 0.45396948 -0.031576477 0.24943247 0.4220412 0.44843632 0.32758316 0.49708307 0.60821724 0.4353546 0.2759605 0.32812223 0.5125293 0.5972882 0.43116724 -0.25765178 -0.045075834 -0.012480304 0.19407058 0.1831103 0.19757894 0.5008484 0.55998623 0.4426461 -0.4261121 -0.10937923 0.11689773 -0.20066726 -0.30777353 -0.014281683 0.31049362 -0.04243809 0.069783315 0.11338978 0.33049387 -0.06754616 -0.054150835 0.51340085 -0.23670426 0.45542222 0.55368626 -0.106307074 -0.24477115 -0.15078405 0.37573385 0.60951066 0.5646157 -0.10622545 -0.04470855 -0.005054772 0.3245217 0.48290265 0.5223215 0.5498589 0.13434128 0.14887041 0.032156814 0.16900675 0.17269732 0.08236956 -0.11876348 0.0782362 -0.029068153 -0.010731969 0.012619202 0.005625438 0.05245471 0.199054 0.2037909 0.1696943 0.3424979 0.31816494 0.20992169 0.28386405 0.33461207 0.3408063 0.2501654 0.6129761 0.6925067 0.7297751 0.5677291 0.5430038 0.41609657 0.19414161 0.14737722 0.22361237 0.16586506 0.11247362 0.12173756 0.16578752 0.24503398 0.2554125 0.2342579 0.16399066 0.31677592 0.32579285 0.5428935 0.597579 0.68640643 0.74162996 0.5324005 0.23844853 0.15425755 0.26458073 0.6548544 0.696746 0.4743806 0.46918708 0.075312294 -0.03898646 0.65955985 0.17368716 0.25095588 -0.06718269 -0.06644777 -0.041269265 -0.0006286688 -0.007515207 -0.078211024 -0.058659725 0.18923503 0.3960754 0.3641901 0.32702234 -0.04399678 -0.1750448 0.19397476 0.37954387 0.66984797 0.3857011 0.6695252 0.7370879 0.36988777 0.31831294 0.61698765 0.6934738 0.19733125 -0.16213448 0.012946367 0.29737467 0.4601327 0.59702045 0.65700567 0.23093751 0.41813493 0.51220334 0.03613813 -0.011552729 0.01075276 0.51227695 0.5017056 0.33807608 0.16254944 0.17196193 0.46332192 -0.05637528 -0.1318255 0.3347068 -0.2773957 -0.2678034 0.4212466 -0.048100047 0.084224395 0.47372797 0.46144646 -0.112448186 -0.06787552 0.20927295 0.17448069 0.19488218 0.3777532 0.43663102 0.42456922 0.027089907 0.09160776 0.046195697 0.12559047 0.26441756 0.2883388 0.25261354 0.1401854 0.16002364 0.07899652 0.29589882 0.31006008 0.117478356 0.0650595 0.02476131 -0.027910572 -0.042819686 -0.10027163 -0.05729851 0.21493608 0.105541736 -0.086585596 -0.035354923 0.25993803 0.4183553 0.3706419 0.29320776 0.46275777 0.4744368 0.4543568 0.24058385 0.27021542 0.20886895 0.27071017 0.27226904 0.20101832 0.20711295 0.20954007 0.59785527 0.5761388 0.4625643 0.30203593 0.15707569 0.20528679 0.26067987 0.2721723 0.23350582 0.09762204 0.11084605 0.20696568 0.22829853 0.21798833 0.16589227 0.07490998 0.21536875 0.2375434 0.28515333 0.35815156 0.45643473 0.47046793 0.5781679 -0.003807066 -0.10640816 -0.12644853 0.19769634 0.5072698 0.551252 0.5007752 -0.029144978 -0.14784281 -0.15241951 -0.18885495 0.24841742 0.45175797 0.30921778 0.25895905 0.06492719 -0.06466608 0.03407047 -0.0113181025 0.2564804 0.19854517 0.3157439 0.4110697 0.31972227 0.27224922 0.5342574 0.7326746 0.15470517 0.7893809 0.02898759 0.7650504 0.55162895 0.6714703 0.18839954 0.24904633 -0.3504713 -0.2026503 0.50333995 0.51323664 -0.14324723 -0.166265 -0.027572446 0.08778497 0.53781754 0.109156296 0.046866078 0.5221883 0.45891887 0.38767633 0.042533815 0.2168171 0.47274977 0.2151707 0.30447873 0.3142891 0.5598298 0.46347666 -0.25541925 -0.16930014 0.3812853 0.5874735 0.57070136 0.46980917 -0.09693791 0.24195267 0.24860495 0.30497518 0.33346656 0.59264004 0.57250386 0.4409485 0.029779797 0.31043047 0.30173934 0.10777438 0.11352682 0.05100166 0.0977142 0.2994709 0.32540065 0.12730572 0.1203993 0.09565914 0.02265251 0.19746393 0.06964724 0.0769888 0.070767604 -0.0019580983 0.068736054 0.34398422 0.3891611 0.4397478 0.47394887 0.46694604 0.4408942 0.45867702 0.3179115 0.26458055 0.28903103 0.28637516 0.25280267 0.24356732 0.2437081 0.2659023 0.15880576 0.20879379 0.24744514 0.23448497 0.20230955 0.12913266 0.18045437 0.4362908 0.29033917 0.2650033 0.25257626 0.25778073 0.23522788 0.21643259 0.2607832 0.28172836 0.22365345 0.05778071 0.051852033 0.12225606 0.060458366 -0.023010913 0.073579706 0.018754974 0.13634764 0.13736144 0.1987568 0.17365481 0.2353551 0.5463591 0.42985812 0.026180828 0.4379373 0.19114389 0.14058924 0.22696508 0.2367675 0.055774376 0.11906592 0.017196082 0.08548581 0.4287704 0.62682414 0.7679491 -0.13078195 -0.10353857 0.7722049 -0.03853035 0.63258076 0.26143712 0.21775866 0.5241414 0.21442986 0.24968131 0.5572206 0.550537 0.24215743 0.3550701 0.5664097 0.53188825 0.17532319 0.37125295 0.48953736 0.3668738 0.2503118 0.41871923 0.23872605 0.54124343 0.012077719 -0.10822098 0.22090364 0.22008584 0.553856 0.5834784 0.5710019 0.42250982 -0.061309487 0.2630606 0.21419774 0.22083749 0.57769763 0.5684986 0.474877 0.2570248 0.010139687 0.03542573 0.029975837 0.022004914 0.01563672 0.12281776 0.24371561 0.30889156 0.28220108 0.025871519 0.0052231196 0.042685237 -0.03900902 0.09881347 0.10935743 0.29862994 0.11808179 0.11424944 0.12854186 0.29546678 0.44774103 0.4180032 0.41421986 0.4225129 0.33693522 0.32698333 0.30829132 0.32562482 0.33036137 0.29662558 0.22139537 0.26707864 0.3045588 0.31670052 0.24261212 0.16043392 0.15058535 0.1703937 0.19580972 0.16471466 0.31254587 0.3190263 0.2943862 0.2735988 0.25141805 0.21695003 0.06461296 0.05198788 0.066096716 0.06443159 0.31753314 0.28498024 0.28199667 0.22597238 0.16608228 0.18013707 0.16319016 0.23313133 0.19518134 0.14558841 0.10137369 0.019549564 -0.054867223 0.22775182 0.20237002 0.09168103 0.1733955 0.21749863 -0.51763856 -0.14936459 0.076049216 -0.01382941 0.3086347 0.580428 0.14348845 0.6268313 -0.0071532438 0.668924 -0.049227696 0.3406521 0.35066152 0.1348058 0.20554873 0.48457497 0.29316968 0.5764822 0.38758004 0.41050106 0.5747078 0.47467318 0.49241817 0.49629062 0.3701821 0.11298411 0.26629367 0.4137715 0.4841693 0.1960288 0.17440009 0.08575732 0.0034722947 0.47378555 0.16917795 0.13929313 0.5152301 0.5600233 0.22519475 0.19711602 0.5368355 0.5524812 0.5228357 0.3530885 0.024293646 -0.01103057 0.012305964 -0.105290055 0.048544403 0.10452189 0.22929892 0.016614571 0.036052 0.011174396 0.0011890987 0.052631393 0.017006688 0.05736558 0.08331978 0.11750592 0.12802188 0.13396294 0.14853969 0.12461694 0.20831509 0.37155488 0.35225362 0.11716584 0.1464276 0.15431543 0.28824556 0.39117056 0.3195868 0.33758047 0.31662953 0.24160105 0.29439917 0.32113844 0.33624548 0.22077194 0.039959803 0.021586722 0.17472607 0.2562782 0.073393054 0.029124659 0.1005297 0.13712643 0.22648445 0.22253482 0.106649734 0.21100114 0.33729985 0.31682673 0.107605666 -0.05835755 -0.10566284 -0.09652803 0.13833822 0.09772429 0.21593231 0.26942822 0.32011768 0.29720795 0.26870072 0.25157642 0.08499265 0.014557354 0.17707646 0.11196003 0.1287989 0.20409882 0.129916 0.43255 0.43126696 0.16245091 0.0029074103 -0.06367512 0.019391797 0.031963106 -0.49543095 0.26944992 0.30502853 0.19250865 0.18355256 0.06486554 -0.07303257 -0.56421643 0.19299926 0.21385986 0.23476559 0.15224366 0.19071735 0.21954736 0.15693165 0.2334642 0.18956469 0.19373819 0.41744936 0.054075595 0.032942895 0.062699914 0.2169969 0.41793418 0.24700287 0.28449225 0.5454479 0.41584918 0.53133476 0.48137686 0.50652564 0.47997797 0.4048639 0.4735809 0.502373 0.09445524 -0.09720938 -0.10069886 0.06611251 0.24214047 0.36720347 0.33987883 0.13860717 0.44462752 0.18362945 0.19492078 0.508842 0.50232077 0.43636698 0.29235 0.049961135 -0.06730621 -0.021184921 -0.25000277 -0.21554919 0.051157717 0.21695457 -0.08046961 0.0144556165 0.05453231 0.052329853 0.019629562 0.07197507 0.036912084 0.09730986 -0.035301678 0.0018958636 0.24003375 0.1646345 0.18239361 0.21529981 0.19763939 0.14245927 0.11615054 0.085969485 0.02979796 0.04659152 0.2902843 0.27449012 0.32098076 0.28968936 0.18309276 0.037965186 0.23392043 -0.042532444 0.14154088 0.1874254 0.20381254 0.14018306 0.20678295 0.20834519 0.053016867 0.08721763 0.1687255 0.1465751 0.16041367 0.05838439 -0.06527879 -0.099899426 0.24398877 0.17040855 0.1751795 0.22756845 0.44951808 0.48622754 0.20737539 0.003723614 0.3072766 0.44731018 0.46776563 0.5108201 -0.1625628 -0.12191594 -0.34870636 -0.58698994 0.33748066 0.35011187 0.05262679 -0.17428671 -0.62637365 0.31394175 0.21626593 -0.13571355 -0.25617185 0.27517748 0.21087362 0.17453557 -0.17370503 0.15208226 -0.21911156 0.06886694 -0.015768632 0.103589684 0.1100328 0.40278924 0.16842656 0.2542146 0.49581957 0.37558606 0.3803988 0.43302852 0.34004313 0.41930526 0.44588935 0.12834045 -0.18675971 -0.10976021 0.027555145 0.21990284 0.33343798 0.33174092 0.16203165 0.10777955 0.4426158 0.46944702 0.46551675 0.33070296 -0.16344729 -0.22111882 -0.16667008 0.07562658 -0.17023706 -0.08386573 -0.15477532 0.035829358 -0.06312403 -0.08216484 -0.012013581 -0.018148929 0.14191489 0.14716515 0.15964438 0.23277286 0.2576335 0.06238209 -0.0014847815 -0.0073572733 -0.03776722 0.073800646 0.18646097 0.26113713 0.27479893 0.2688296 0.26617035 0.2647059 0.2556063 0.109165214 0.22129358 0.121151365 0.121499665 0.6190519 0.6234003 0.58459765 0.14949477 0.20704523 0.08067503 -0.040299285 -0.0073847873 0.07836023 0.15164016 0.15521719 0.52644086 0.5091522 0.4968161 0.14373091 0.16092482 -0.06502169 0.16727269 0.14299025 0.44328654 0.44362232 0.43071884 0.06828354 0.118647754 0.16093507 0.14572045 0.22750472 0.21110818 0.14109954 0.14924589 0.20475863 0.20928447 0.18103483 0.17830542 0.21683124 0.33742505 0.1370609 0.18276203 0.24559808 0.27475822 0.30722448 0.40278873 0.41475555 0.39254212 0.0480508 0.099788964 0.29431915 0.33206624 0.44897872 -0.11568181 -0.14906259 -0.22492574 -0.22956365 0.31498787 0.3194309 0.15944946 0.21407948 0.26831132 -0.2619388 -0.3490652 0.32523704 0.15105623 -0.3177148 -0.30977404 0.21230918 -0.35585162 -0.3489791 -0.21431798 0.069902375 0.14731866 -0.15470235 0.13214132 0.19494724 0.08386308 -0.12336399 0.33817586 0.501295 0.08061078 0.38921413 0.49898022 -0.13776869 0.1469617 0.26464793 0.11939394 0.2611722 -0.16875978 0.33377364 0.3218068 -0.00067630224 -0.027130172 -0.194757 -0.03790168 0.1621741 0.27865398 -0.013548423 -0.047802716 0.36279818 -0.01370323 0.403571 0.29402322 -0.042054247 0.014345247 -0.017889608 -0.25264528 -0.1839233 -0.2263951 0.08446082 0.042532176 -0.17992987 -0.0693307 0.14787425 -0.052011114 0.04411257 0.25174242 0.19272995 0.17565943 -0.08741463 -0.030073255 0.030430526 0.3026498 0.29659584 0.24650793 0.24574813 0.24955155 0.19558188 0.04868062 -0.04598905 0.07729339 0.21031116 0.29823452 0.32660976 0.35436153 0.24348822 0.23614345 0.70577514 0.06821227 0.104896 0.17831954 0.16615126 0.18392116 0.19879636 0.67605543 0.686679 0.6501347 0.59931767 -0.024097115 0.019629695 0.10757191 0.12408754 0.13752297 0.16797695 0.57587564 0.61207163 0.64000964 0.6017759 0.5580672 0.4875533 0.07831298 0.13898802 0.13337897 0.46550912 0.515001 0.501341 0.5161905 0.44826406 0.42800826 0.0669532 0.083394445 0.11105293 0.27278012 0.37978655 0.3944002 0.41119513 0.37245893 0.33872902 0.026228126 0.060763165 0.6518459 0.64401686 0.55634236 0.29788217 0.22411428 0.3120901 0.3675563 0.3577935 0.32070765 0.37157542 0.48444664 0.22255312 0.23893061 0.06444058 -0.106881164 0.11481773 0.16540223 0.67001677 0.66983664 0.5937331 0.19960624 0.21180414 0.30619898 0.445724 0.5176621 0.5187968 0.4932502 0.12588134 0.18368526 0.19543616 0.223