# vtk DataFile Version 2.0
Really cool data
ASCII
DATASET POLYDATA
POINTS 2747 float
24.328398 22.11851 -1.2251683
24.303873 22.055923 -0.69295526
24.31895 22.994303 -1.8800485
24.135332 22.569664 -1.2909622
24.031153 22.692467 -0.592788
24.283955 22.669935 0.02659437
24.346788 23.418154 -1.9200575
23.995432 23.513573 -1.2125735
23.95037 23.380543 -0.5935254
24.178701 23.528423 0.038035095
24.170515 24.036629 -1.2711926
24.085453 24.0685 -0.5487395
24.191582 23.92311 -0.025021166
24.383167 31.932453 -4.157993
24.265196 32.051537 -3.5890226
24.320276 33.07577 -4.9750185
24.099318 32.65065 -4.127809
24.054937 32.646492 -3.5786068
24.195982 32.877445 -2.9304514
24.309893 33.61224 -5.0577216
24.0138 33.388966 -4.2426043
23.980299 33.278156 -3.661842
24.224304 33.26565 -2.9705358
24.332153 34.392673 -5.1061263
24.205612 34.608604 -4.4962583
24.166748 34.242466 -3.7293892
24.321924 33.92227 -3.0793505
24.39856 35.16004 -4.4939337
24.939953 22.046003 -1.9424948
24.81231 21.72616 -1.295851
24.772152 21.670977 -0.56051475
24.78229 21.87387 -0.065086365
24.733397 22.738377 -2.2479568
24.413988 22.30415 -1.6382021
24.625854 22.532757 0.2897554
25.129723 22.58332 0.7306399
25.101643 23.396101 -2.5864847
24.817963 23.469494 -2.3619843
24.45937 23.530622 0.39964592
25.000677 23.451204 0.8373469
24.749367 23.981426 -2.1382983
24.634708 24.520998 -1.450808
24.516407 24.59125 -0.3651288
24.50034 24.48504 -0.044575304
25.196482 24.10414 0.7835903
24.923563 24.833794 -1.398829
24.686848 24.964136 -0.61079866
25.179224 24.989447 0.20048226
24.978933 31.207062 -4.3466606
25.027245 30.964262 -3.4374695
25.17293 30.938887 -3.0368762
25.281452 31.680487 -5.2161055
24.764738 31.72837 -4.513619
24.681383 31.568748 -3.5479324
24.932373 31.697939 -2.6547155
24.765314 32.61146 -5.17788
24.79039 32.448856 -2.4975193
25.065845 33.76086 -6.0626416
24.506641 33.694435 -5.3049197
24.523874 33.574497 -2.6452837
25.071577 33.559093 -2.1082525
24.819576 34.43227 -5.876748
24.52434 34.57064 -5.502899
24.442604 34.727158 -3.60964
24.568304 34.181793 -2.9985905
24.966011 33.93584 -2.3257766
24.974176 35.24469 -5.831566
24.608873 35.36348 -5.3124084
24.583569 35.500305 -4.345089
24.635931 35.170933 -3.8616142
24.862432 34.90836 -3.2764938
25.012768 35.93896 -5.261807
24.931381 35.931107 -4.6129975
24.921368 35.77424 -4.0601363
25.42527 21.419874 -1.1461298
25.455011 21.41427 -0.6105179
25.508194 21.986092 -2.0342822
25.366953 21.583164 -1.462936
25.283232 21.512447 -0.294845
25.4022 21.705688 0.124685675
25.685087 22.139378 0.715803
25.52188 22.751284 -2.5516336
25.410648 22.544004 -2.4691138
25.524223 22.645033 0.94183695
25.508757 23.418203 -2.676927
25.455797 23.447155 1.1341
26.133987 23.621984 1.6179949
25.812279 23.881073 -2.5631135
25.571712 24.307747 -2.3882859
25.968182 24.135689 1.4136982
25.821985 25.288382 -1.912751
25.556833 25.501637 0.44184756
26.270817 25.589874 1.340021
25.938353 26.250002 -1.2270697
25.627216 26.06128 -0.6020253
26.240526 26.645922 0.30998886
26.324434 26.88535 -0.17383413
26.20722 26.758707 0.007266
25.72068 30.336618 -4.279101
25.663015 30.296757 -3.4246752
26.086313 30.257381 -2.523535
26.017029 31.018896 -5.3810625
25.542738 30.6061 -4.2208223
25.50721 31.017046 -2.35031
26.087214 31.840746 -6.0916185
26.015257 31.594858 -1.7759806
25.888422 32.66436 -1.6546582
26.041742 33.544037 -6.649749
25.572733 33.87484 -6.471879
26.077303 33.219616 -1.5547686
26.121546 34.257637 -6.756419
25.536991 34.683186 -6.2756243
25.630804 34.201515 -2.0555863
25.41494 35.144012 -6.1399794
25.329643 35.587185 -3.5514514
25.784924 35.05537 -2.9216325
26.381268 35.84378 0.91345793
26.402603 35.932537 1.7616004
25.469471 35.8313 -5.736778
25.248728 36.166866 -5.1619425
25.322227 36.146545 -4.387699
25.839848 35.80078 -3.7810218
26.416002 36.28218 0.80255854
26.40549 36.390324 1.4824655
26.450718 36.177097 2.0559406
26.146439 21.46203 -0.6690927
26.085852 22.07767 -2.0736928
26.408163 21.687523 -1.3242624
26.439268 21.545227 -0.624928
26.418785 21.720915 0.2503326
26.336185 22.103407 0.71183264
26.004969 22.556156 -2.4502714
26.803972 22.728931 1.3860682
26.512325 22.886578 1.5930979
26.345121 23.200092 -2.585919
26.760416 24.69845 -2.4999766
26.964525 24.500265 1.8943696
26.901026 25.67692 -2.2448907
26.752987 25.028427 1.8475723
26.789898 26.322817 -2.0069652
26.48715 26.912903 -1.0934925
26.581188 27.421995 -0.38224947
26.523184 27.175552 0.18010283
27.070509 27.358263 1.1869848
27.41377 28.737307 -3.4633834
27.36355 28.683683 -2.8240867
26.791044 27.926245 -0.34364486
26.78786 29.791304 -4.344648
26.357176 29.895338 -2.753397
27.386887 30.514793 -6.8743267
26.698437 30.478575 -5.36811
26.608927 30.497267 -1.949611
27.12896 30.81399 -1.2782068
27.223904 31.967999 -7.553213
26.407173 32.14028 -6.196013
27.32938 31.459286 -0.917651
27.408543 32.623642 -8.217294
27.180777 32.344685 -7.518676
27.392925 32.95618 1.3380828
26.478943 33.642864 -6.904231
27.017994 33.08163 -1.2235959
27.258966 33.35319 0.49902028
26.4824 34.385296 -1.9593165
26.873405 35.076202 0.4291631
26.765326 34.941486 1.3360286
27.14453 34.67683 2.2869473
26.476196 35.009193 -6.6804433
27.215223 35.404533 -2.868985
27.140892 35.350853 -0.05732894
26.513195 35.578377 0.75430596
26.71625 35.571793 2.2383394
27.105577 35.795998 2.9110358
26.876451 36.28935 -5.8547993
27.125078 36.38442 -3.8354032
27.329077 36.301785 -2.9672208
26.91807 36.541275 0.09008774
26.574635 36.497025 0.6528642
26.54427 36.733784 1.803384
26.732555 36.540092 2.3966713
27.094242 36.351887 2.9136763
27.36848 37.996082 -7.490094
27.250145 37.347603 -5.905859
27.006292 36.789227 -5.203159
27.16187 37.214375 -4.8663397
27.179544 36.855186 0.15649028
26.86411 37.209293 0.81156605
26.755995 37.209114 1.4669738
27.00429 37.176926 2.2750924
27.20963 36.925205 2.7700598
27.3313 38.636627 -8.113636
26.830559 38.921055 -6.055312
26.87946 38.761242 -5.513165
27.178722 38.57775 -4.6979203
27.265017 37.75995 1.4500123
27.369787 39.28323 -8.024926
27.231167 39.421684 -7.357929
27.002047 39.324883 -6.4554915
26.878752 39.466564 -5.4984827
27.050879 39.54773 -4.8897824
27.346495 39.85589 -7.2968884
27.30063 40.07783 -6.3848205
27.11956 40.022514 -5.3914523
27.133934 39.909744 -5.0521946
27.259094 22.093067 -1.4350038
27.262154 21.677452 -0.55788726
28.1269 21.787266 1.717326
27.476707 22.867254 -1.9827045
27.52588 24.80609 -2.724646
27.69148 24.877375 2.1900017
27.903374 25.068691 -2.6079063
27.839535 25.541094 2.408365
27.68592 26.34253 -2.2026794
27.589474 26.454802 2.2236109
28.171398 26.818853 2.633448
28.225798 27.818377 -5.944383
28.193861 27.612635 -5.437826
27.547894 27.814713 -2.5282776
27.904318 28.527958 -5.4601755
27.66351 28.340424 -4.2052674
27.55568 28.781242 -3.7977278
27.469208 28.593565 0.83710843
27.593367 28.397232 1.2866638
28.054014 28.467525 1.9325478
28.260916 28.961935 4.678185
27.980804 29.040474 5.5499783
28.11789 29.017254 6.453316
28.196222 30.123951 -7.916513
27.764334 29.624943 -6.1850395
27.910448 29.360928 0.52087545
28.471174 29.068224 3.2519298
28.187902 29.59408 4.579262
28.056637 29.46495 6.4025087
28.255222 29.477581 6.922867
28.133007 31.200705 -8.782394
27.920818 30.703054 -8.155853
27.566488 30.64729 -7.3158574
28.368591 30.832245 1.621048
28.250069 30.99903 2.1148243
28.380045 30.46549 4.6215177
28.087353 30.43932 5.8255615
28.152287 30.327068 6.3377857
28.138903 31.496716 -8.9748535
27.605186 31.2866 -8.259478
27.685047 31.557743 -0.18956132
27.888016 31.483122 1.0389994
28.114885 31.67281 2.0563128
28.36806 30.971699 5.423009
27.973291 32.35256 -8.982692
27.673903 32.584183 -8.575965
27.615791 32.61746 0.49731275
28.309711 32.575947 2.6072965
27.703966 33.09898 -8.433442
27.529078 33.426563 2.30332
27.957708 33.738106 -7.996538
27.249561 34.85583 -6.669473
27.267569 35.14163 -6.5113935
27.635326 35.575195 3.1360567
27.747896 36.45641 -2.727945
27.962145 36.047955 -1.1910477
27.478102 36.49916 3.1249943
28.1368 37.835587 -10.351978
28.007114 37.907276 -9.572442
27.855001 37.673794 -8.573751
27.549227 37.552147 -6.9195647
27.476776 37.38894 2.489616
27.485783 37.04136 2.8792624
28.423557 39.15607 -14.119111
27.951612 38.675224 -10.899691
27.885202 38.70462 -10.383851
27.643797 38.44979 -9.187375
27.791342 38.88069 -4.0136337
27.67344 37.885166 0.8801179
27.676851 37.969822 1.6021394
27.608307 37.747017 2.1490796
28.193836 39.74522 -14.49802
28.059675 39.604713 -10.725831
27.609776 39.60688 -8.544188
27.370203 39.444923 -4.4257245
28.25023 40.526604 -15.16701
28.042059 40.401333 -14.494017
28.050585 40.535343 -13.811063
28.225307 40.73847 -11.821963
28.225512 40.555626 -8.660917
27.764528 40.18799 -7.559597
27.642359 40.485672 -6.5283556
27.538656 40.447426 -5.667101
27.629559 40.252083 -4.8638163
28.31303 41.282352 -15.198653
28.257332 41.41514 -14.6619835
28.221333 41.193546 -13.515813
28.483208 41.84322 -10.965329
27.86598 40.64747 -6.5341377
27.840721 40.650974 -5.5341783
28.052975 40.699585 -5.098778
28.827501 21.028997 0.81270134
28.674654 20.840197 1.6514935
28.885399 20.756155 2.2350671
29.159796 20.977884 3.0446622
29.063957 21.2823 0.50860834
28.932981 21.69645 3.3915508
29.237766 22.094288 4.256339
28.734243 22.517399 3.2524073
29.058155 22.918076 3.8285859
27.86855 23.27255 -2.0226872
29.2336 24.970324 3.2751727
29.174109 25.590307 -4.9290566
29.34144 25.814352 -4.0662346
28.99775 25.37029 3.03979
29.390146 26.554321 -7.8934717
29.199377 26.64918 -7.480656
28.902977 26.607372 -6.5930023
28.837742 26.513779 -5.662077
28.627748 26.793518 -4.3301353
29.143185 26.919958 5.9367948
29.333193 26.657618 6.369922
28.8262 27.463678 -6.9555798
28.970299 27.517664 5.8034835
28.724762 27.94225 6.4279447
28.749086 29.153 -7.4645147
28.53031 28.41052 6.4392023
28.717861 28.694408 7.120205
28.528023 29.739513 -7.9399285
28.407383 29.559183 -7.5457397
28.421936 29.288548 7.1469774
28.571304 30.755304 -8.882154
28.342867 30.642565 -8.589538
28.383368 30.67529 6.5301437
28.571003 30.199696 7.165017
28.472557 31.72482 -9.320024
28.500488 31.219318 2.6596575
[...]
POINT_DATA 2747
SCALARS features_00 float 1
LOOKUP_TABLE default
0.9603039 0.9558743 0.9151113 0.9709947 0.9610338 0.8786733 0.8898734 0.9217248 0.90329754 0.7979411 0.85179573 0.7949571 0.7580719 0.56604654 0.5992007 0.59421813 0.62699145 0.63916886 0.621042 0.62710524 0.6542933 0.6456276 0.6087527 0.6735619 0.67311555 0.6220336 0.5800254 0.6622355 0.8974087 0.91855353 0.90392244 0.86825097 0.8717499 0.9398831 0.8202869 0.70533174 0.7882547 0.8196933 0.7346984 0.6448022 0.7989158 0.7584599 0.6770655 0.67076516 0.57509226 0.68137455 0.61532396 0.519945 0.47046143 0.4852237 0.478214 0.41573703 0.5074196 0.5446288 0.53946835 0.5141704 0.5791719 0.4918337 0.5993468 0.5604446 0.5009125 0.5735232 0.647354 0.58267885 0.54763776 0.500138 0.6172817 0.68798125 0.62985516 0.5823776 0.51067114 0.6441501 0.61615086 0.56166184 0.8519861 0.8336953 0.85496366 0.86713755 0.8362858 0.79824525 0.694035 0.8050611 0.8295001 0.6405734 0.74283695 0.56462914 0.43969655 0.6638849 0.660969 0.439317 0.5524849 0.40755093 0.35573804 0.40238228 0.3920075 0.25616542 0.2670108 0.2711722 0.36151135 0.39796323 0.36752188 0.29282767 0.40087277 0.43670297 0.24003367 0.33670068 0.39142716 0.31532362 0.42263615 0.38272578 0.36725575 0.48126417 0.4329257 0.5237375 0.4538021 0.37375024 0.6358545 0.68000424 0.56544703 0.5967049 0.52626693 0.3761939 0.6474564 0.6945169 0.69894964 0.77565664 0.7953315 0.7609345 0.7502141 0.69944227 0.63048637 0.77357984 0.42535442 0.44678476 0.67673063 0.4840654 0.2878669 0.39830583 0.28749475 0.38330558 0.2810061 0.21026665 0.22312759 0.22410768 -0.076264426 -0.095113195 0.16053009 0.13586718 0.30806166 0.17259452 0.16218112 0.28121135 0.095266595 0.267518 0.2040697 -0.012534812 0.30364475 0.23962416 0.13699144 0.24178568 0.11706424 0.10582136 0.32977235 0.5300857 0.56564337 0.5697589 0.38442123 0.12914236 0.47424233 0.60617393 0.66653216 0.672735 0.256997 0.11459942 0.03312038 0.55451405 0.6395596 0.71460557 0.7101047 0.68945825 0.31142205 0.13918011 0.18838811 0.2137557 0.56246644 0.6860071 0.71897805 0.71261656 0.69546413 0.34730658 0.4477131 0.46553016 0.49608055 0.6913964 0.37816256 0.41618013 0.46817958 0.5464202 0.5816554 0.40855694 0.48268235 0.56008816 0.5754109 0.67224777 0.60614926 0.37407324 0.6082524 0.42389485 0.12335058 0.3535078 0.05002531 0.27856338 0.1614092 0.069689825 0.13511841 0.14981174 -0.19623847 0.047578625 -0.020218186 -0.06286826 0.07361634 0.08035729 -0.0027159732 0.43526304 0.50076175 0.47261918 0.24981472 0.05718918 -0.08466456 -0.114679106 0.4547747 0.5165574 0.48891208 0.34886485 0.29574263 0.23421526 -0.04648796 0.007595323 0.44810498 0.5297432 0.535008 0.36716312 0.332614 -0.1580432 -0.0427194 0.08240601 0.47753674 0.37727576 0.34521884 -0.03557256 0.20474212 0.27857774 0.30270612 0.12516937 0.29136428 0.33106115 0.61078244 -0.07585142 0.07812069 0.6584041 0.14818871 0.18429223 0.21851188 0.23623392 0.68172336 0.67234814 0.35358906 0.21329257 0.21850574 0.26736066 0.47495303 0.6141373 0.64450705 0.66562223 0.4241443 0.25432017 0.3326168 0.56799495 0.4485506 0.44441664 0.4139317 0.18404345 0.109069616 0.35032457 0.44290003 0.52311945 0.5467631 0.40249562 0.39457756 0.37007076 0.1849609 0.42243242 0.50882727 0.5046905 0.5115719 0.5243333 0.50213146 0.4650191 0.5019774 0.42256847 0.3519747 0.35265762 0.24870913 0.50234526 -0.1803401 0.32273751 0.22362892 -0.14560226 0.36066854 0.35687572 0.34044665 0.30060655 0.17516468 0.08922312 0.0459921 0.19630466 0.21456128 0.31119496 0.14383654 0.38329443 0.38654727 0.22662777 0.19247061 0.45729268 0.31475714 0.30551144 0.51054966 0.4810021 0.3736242 0.0012724567 0.32224417 0.44317007 0.46778744 0.46116415 0.38504675 0.0921068 0.37373874 0.31451723 0.24005988 0.33972114 -0.24613708 0.4740336 0.023825562 0.22403932 0.46440673 0.3930503 0.11250579 0.08222525 -0.19365835 0.5707867 0.44678068 0.3500306 0.23304911 0.20251395 0.27951002 0.39119858 0.47102553 0.52685726 0.4754189 0.456186 0.40794212 0.43444088 0.42360216 0.43560928 -0.007940695 0.097473584 0.23033462 0.46078032 0.456172 0.15292205 0.09616117 0.21208937 0.3738187 0.41602483 0.42087966 0.53873366 0.39322576 0.35344502 0.21417168 0.21837309 0.24513584 0.2016676 0.588133 0.48330355 0.2607016 0.1525296 0.2945993 0.29586253 0.60344094 0.5050806 0.41691428 0.32679605 0.3289713 0.59016365 0.52525795 0.43984044 0.5453035 0.5119116 0.56531775 0.5489764 0.4581641 0.43421847 0.38619354 0.3332692 0.34756663 0.25859186 0.19290258 0.10265293 0.016760357 0.44976282 0.4387651 0.39475122 -0.0739291 -0.1485036 0.4938122 0.5053225 0.38713834 0.4371806 -0.06450299 -0.025025042 0.3590836 0.43499577 0.42165595 0.33684242 -0.17727596 -0.0023225788 0.27136046 0.1674813 0.22845556 0.23304608 0.05632984 0.17514937 0.11070612 0.16653049 0.18148026 0.30922702 0.10298583 0.2562028 0.17849143 0.29092023 0.3144179 0.33944914 0.2507462 0.34104896 0.30663127 0.105277866 -0.26422435 0.43709767 -0.0244463 0.1157819 0.3917869 0.38733068 0.09134024 -0.1339653 0.33058256 0.48597068 0.34502748 0.27152222 -0.018511537 0.5500621 0.4956544 0.35110867 0.5413786 0.05872477 0.056617808 0.11191172 0.5173523 0.15184097 0.1289931 0.1329516 0.39566618 0.3237614 0.32941738 0.17247276 0.21019925 0.19805881 -0.019219398 0.10037199 0.24725285 0.14332467 0.5994812 0.6285999 0.2981679 0.6189221 0.63888866 0.25139838 0.2903682 0.34568518 0.3491994 0.6384485 0.5893546 0.5014173 0.40886095 0.34584618 0.35128304 0.46690774 0.44000643 0.37999392 0.5896951 0.57312655 0.5633286 0.49757665 0.5780448 0.4447518 0.3912294 0.20151973 0.32321268 0.588048 0.40684646 0.20175828 0.14288738 -0.01240511 -0.159417 0.19638635 0.5511064 0.5751307 0.38872144 0.42850232 0.4092047 0.33311373 0.27015477 0.41627792 0.5235793 0.5146689 0.3072927 0.29347306 0.41177383 0.44749114 0.2396178 0.3072167 0.27291736 0.18073556 0.16038415 0.26167572 0.26412812 0.13548082 0.2340078 0.27592432 0.09534434 0.058873273 0.117867544 0.174561 0.055574644 0.15104303 0.18418333 0.078971565 0.21622469 0.46059296 0.40215388 -0.3925875 -0.15780759 -0.11476093 0.55884886 0.59581935 0.4472194 0.46654236 -0.0142034255 0.56946474 0.61785185 0.3917706 0.38677758 0.14884233 0.61803985 -0.27720442 0.057338987 0.19160551 0.22144338 0.5664027 0.018888928 0.17992017 0.2377481 0.26321095 0.552016 0.5582009 -0.02745938 0.24313624 0.5371226 0.045437783 0.021369364 0.059108578 0.15938437 0.09500242 0.5981146 0.043316416 0.08094785 -0.021981165 -0.11443902 0.14610434 0.19349284 0.21700603 0.20226803 0.14469561 0.6001829 0.62414813 0.6153998 0.61603284 0.38035554 0.36537907 0.6184483 0.60901314 0.3559985 0.35238624 0.38565367 0.38992876 0.5688996 0.5205885 0.46259636 0.42151225 0.39185703 0.39010322 0.42766908 0.5938345 0.577013 0.5431465 0.4517877 0.4456229 0.5842644 0.3840614 0.32936114 0.3164315 0.55582404 0.56288654 0.32952446 0.5654794 0.27942592 0.5570616 0.58056986 0.58919895 0.3743643 0.31504148 0.24503617 0.26046076 0.60650766 0.5920905 0.38767913 0.40419066 0.28925607 0.15866673 0.54246026 0.34629193 0.2675947 0.37983593 0.43630487 0.24128288 0.32459518 0.18228921 0.25358647 0.30344313 0.014080066 0.34895623 0.40160054 -0.028377386 0.294791 0.34953785 0.058480706 0.050967194 0.14456803 0.23941247 0.09005444 -0.22353804 -0.08249682 -0.026388193 0.12006493 0.5286948 0.58735955 0.5895701 0.47568166 -0.045374237 -0.04569339 -0.06431702 0.41129968 0.6035965 0.6057556 0.4951645 0.04429516 0.03256986 0.04642096 0.20413274 0.4365061 0.629272 0.637892 0.44086316 0.10010736 0.10341797 0.13492888 0.09508858 0.5738218 0.6474394 0.6822407 0.6785773 0.44381276 0.16150919 0.1254037 0.41318095 0.60779595 0.67863655 0.6972271 0.6888442 0.5529517 0.24083427 0.6679327 0.54607147 0.53247404 0.11747981 0.2432632 0.23461616 0.5267974 0.017672379 0.02307659 0.097362 0.20655754 0.4700505 0.04982082 0.030953187 0.12799668 0.16337596 0.6266293 0.013356507 -0.13563317 -0.1149086 0.14560066 0.08341024 0.10727425 0.2063024 0.24394637 0.31224984 0.6626383 0.65100706 -0.083066344 0.07487709 0.12789364 0.17041369 0.14976265 0.09309923 0.32464862 0.38665003 0.6707251 0.6686736 0.17882235 0.12483797 0.13567723 0.6413562 0.31690246 0.60433924 0.5738897 0.5522772 0.4690591 0.46717894 0.45539698 0.4656189 0.4843359 0.4815631 0.505218 0.49043208 0.58461714 0.5679774 0.5298795 0.45553547 0.5807594 0.5484557 0.49954462 0.3768503 0.28731006 0.28415328 0.29109654 0.56966054 0.5364235 0.5546483 0.566345 0.2681862 0.58065414 0.5824703 0.5851854 0.61492723 0.51899326 0.4075016 0.2507499 0.5709592 0.52124536 0.49410585 0.25158367 0.18791601 0.48410237 0.45127705 0.5506629 0.39080954 0.33144057 0.4784743 0.30615407 0.27840444 0.4479959 0.357715 0.54615426 0.2322177 0.117080666 0.5355207 0.6197549 0.12923133 0.5138873 0.24542484 0.13671875 0.43064988 0.18020803 0.542315 0.55389315 0.48238623 0.5720599 0.41641468 0.6056752 0.40209043 0.6413152 0.3607564 0.10222376 0.060484886 0.6592598 0.66296554 0.52939224 0.51004845 0.19105889 0.14925045 0.08611331 0.32884902 0.525229 0.6289719 0.6419145 0.5326992 0.5162419 0.15762874 0.46817195 0.18268101 0.53419864 0.28276333 0.65674394 0.37813085 0.4502539 0.68710744 0.6949619 -0.21191484 -0.15619016 -0.1257097 0.085545145 0.2831747 0.41224724 0.4370422 0.518577 0.70448565 0.71339726 0.0043921545 -0.22536276 0.08809633 0.10603542 -0.057462897 0.07177894 0.097151205 0.117516845 0.121456705 0.3497786 0.49903667 0.5452061 0.5704919 0.7009968 0.22847533 0.31472436 0.2336176 0.08779314 0.049867116 0.122492775 0.1259613 0.14525148 0.5423335 0.58010477 0.31429976 0.49191493 0.5000813 0.42853832 0.36662775 0.5741529 0.56931967 0.49819118 0.4948653 0.50571024 0.58507085 0.55060303 0.5133867 0.46003717 0.5557265 0.5258151 0.49551815 0.58666354 0.5655884 0.5292978 0.49750608 0.5227121 0.4256037 0.3498267 0.26303908 0.23024315 0.20326313 0.47982186 0.4226732 0.17484504 0.41232175 0.5282551 0.5475818 0.25414366 0.5033604 0.546018 0.5548139 0.67416734 0.682711 0.65443957 0.54893994 0.21581882 0.24700704 0.5233748 0.650471 0.6459468 0.32132286 0.19823238 0.4599805 0.60870075 0.20589381 0.5108309 0.6021328 0.45054126 0.6140217 0.67285323 0.7115532 0.6897807 0.3117408 0.22242385 0.5667386 0.64026654 0.3417118 0.34354907 0.4112395 0.4949993 0.505095 0.2050298 0.51889396 0.121679105 0.57609093 0.5687521 0.45974728 0.07617372 0.22640948 0.33485466 0.42760265 0.5019749 0.5429814 0.42743683 0.008228622 0.459863 -0.018412858 0.13777253 -0.1328888 0.3466789 0.68908924 0.65819436 0.48003668 0.7069144 0.57339036 0.7146517 0.041875273 -0.2973742 0.022828087 0.14242302 0.6208525 0.62589383 0.7056531 0.6584139 0.14344975 0.16175975 0.21761909 0.2227614 0.4096896 0.5387248 0.6130691 0.6533321 0.59730726 0.42951632 0.24803843 0.41086632 0.45107466 0.069832996 0.1668669 0.18084727 0.3022023 0.24798769 0.5902495 0.5878439 0.57421887 0.554173 0.510749 0.47774145 0.4907648 0.46506932 0.50507665 0.54080164 0.5868138 0.42626506 0.34431463 0.55803037 0.53822345 0.5958724 0.57444614 0.52357876 0.48960248 0.5819379 0.5414864 0.16318609 0.21299466 0.20764872 0.18680647 0.17886934 0.16460001 0.09895143 0.35002637 0.452676 0.4573347 0.498542 0.6934645 0.7086945 0.6929165 0.6164938 0.17240763 0.44807833 0.4145613 0.66130954 0.6781583 0.29192477 0.10475205 0.18388598 0.2643711 0.5916323 0.63614315 0.033372678 -0.5511358 0.10364896 0.52487516 0.49573117 0.37554127 0.57833 0.6431628 0.47256947 0.38891792 0.7088709 0.26082283 0.7740651 0.17741038 0.7547034 0.3412249 0.57399106 0.37658143 0.37020016 0.34214365 0.23061398 0.33477306 0.13428037 0.058530524 0.095412396 0.41470373 0.35811302 0.083538815 0.23305565 -0.021961734 0.3207991 0.58275867 -0.016917191 0.52187294 0.69483984 0.664569 0.57370025 0.3762134 0.31295657 0.008468121 0.5780845 0.69675696 0.65329105 0.56355035 0.45959127 0.39285824 -0.053496685 -0.26193774 0.6676303 0.6477413 0.628675 0.54097265 0.50102705 0.4340569 0.40805668 0.36182997 0.110240325 0.066865884 -0.033903684 0.44675565 0.63615805 0.6721503 0.5753211 0.5700327 0.52783996 0.51131433 0.3889163 0.39413673 0.28390074 0.4596889 0.28320312 0.38689393 0.5494963 0.5693767 0.5450485 0.5250186 0.4716634 0.503407 0.27441072 0.2753129 0.42406696 0.41629577 0.51894045 0.5161743 0.41616976 0.30028468 0.5492388 0.566208 0.5119602 0.48726884 0.34232557 0.25073874 0.2295933 0.20424277 0.2570442 0.3087201 0.17721449 0.16280298 0.10725479 -0.09185017 0.11156507 0.24608575 0.38182482 0.6789323 0.7037492 0.1562385 0.079794794 0.3285926 0.6359912 0.63487214 0.641135 0.6564573 0.3864992 0.573814 0.2775073 0.122448765 0.53436184 0.52130336 -0.00013653189 0.44146094 0.572501 0.3681516 0.7112332 0.72963226 0.7978045 0.24651957 0.7087644 0.7595757 0.34306294 0.3922932 -0.031312414 0.4059989 0.38223308 0.11060818 0.22448264 0.3033006 0.048310347 0.28508198 0.1840092 0.13217996 0.26146233 0.3014613 0.1792375 -0.14143823 0.20181528 0.2930764 0.18012491 0.16551866 0.3268091 0.4769162 0.49936324 -0.019706815 0.5974455 0.09664121 -0.027629808 -0.061224513 0.65810645 0.46545213 0.14024192 0.4277546 0.5811006 0.3197491 0.30270487 0.32501546 0.33150136 0.4105783 0.43185616 0.3961084 0.428456 0.43483153 0.32729506 0.3904471 0.482328 0.46787575 0.3886838 0.40017682 0.23905471 0.22776692 0.3472366 0.23197645 0.22349387 0.20729989 0.11974235 0.1445186 0.2640832 0.22044104 0.27686673 0.058063015 0.107886024 0.29344818 0.2534748 0.106099114 -0.14451075 -0.21766397 0.13524728 0.53795123 0.44438836 0.4787581 -0.083196834 0.053886157 0.4103517 0.38492763 -0.010866959 -0.0453965 0.1860444 0.57357556 -0.08575545 0.5834592 0.6575308 0.21776159 0.5026657 0.6520032 0.36784527 0.40672076 -0.16797803 0.3982031 0.3833505 0.23626997 0.36070955 0.20653977 0.31137747 0.3112504 0.3453209 0.3155527 0.3514819 -0.08964312 0.27621964 0.2857158 0.35003495 -3.6746264e-05 0.15138154 0.19957045 0.17344275 -0.19438514 -0.23865406 0.20546308 0.20192493 -0.05369527 0.19592777 0.17158549 0.49741948 0.060543373 0.60821104 -0.038467504 0.27060264 0.56916094 0.29490727 0.2684229 0.24356008 0.06024936 0.3758551 0.36671504 0.28117833 0.09616327 0.23448844 0.25487125 0.30969292 0.374431 0.3965665 0.32730985 0.25601402 0.25011837 0.28870618 0.4267497 0.37352443 0.3640709 0.31858453 0.36821362 0.33474964 0.06693779 0.2776859 0.16039288 0.28339383 0.14610615 0.12980078 0.04250619 0.17183325 0.011688741 0.031757638 -0.10954439 0.10828844 0.10114142 0.1283752 0.23536864 0.33677807 0.3869745 0.37075242 0.27234912 0.34945768 0.3645212 0.36591378 0.314801 0.21903116 0.37415355 0.3932904 0.38412806 -0.005142905 0.34719193 0.3766089 -0.044517267 -0.2194854 0.30578798 -0.23604588 0.13653311 -0.179051 0.3733281 0.73062885 0.18651849 0.17400287 -0.10857243 0.67841256 0.7374997 0.7394931 0.14401636 -0.08985027 0.49667418 0.6503436 0.6913521 0.4026699 0.59887683 0.67792976 0.7158563 0.25103408 0.2565874 0.18725711 0.077060804 0.19423306 0.01747927 0.27866936 0.19416067 -0.013940427 0.30632693 0.34556407 0.2110317 0.25311485 0.26902428 0.34501845 0.40838832 0.31282565 0.38521868 0.38497823 0.3409937 0.28702766 0.22220242 0.06519659 0.48117164 0.4490793 0.4385 0.40448508 0.19706534 0.16142789 0.30643567 0.2608283 0.3284062 0.48544246 0.45335102 0.31192392 0.29521197 0.10678981 0.2732408 0.10236286 0.08134459 0.07865705 0.07097758 -0.08631961 0.15273108 0.13105127 0.0601156 0.24226435 0.26823437 0.29420796 0.31167394 0.35690624 0.30668658 0.28438148 0.36980858 0.22037303 0.38208392 0.39611253 0.048004843 0.38608593 0.031861976 0.36237085 0.37919945 0.051169883 0.09338017 0.7174189 0.012378879 0.73866975 0.7651365 0.77557886 0.064298734 0.21747032 0.2721908 0.7696233 0.1609433 0.017368019 0.04848727 0.71686673 0.7422591 0.24055263 0.03134359 0.03592751 0.50055194 0.6075095 0.72830254 0.7426337 0.28563964 -0.11148155 0.50688684 0.64391387 0.74151456 0.76086366 0.76640725 0.28293663 0.7213111 0.79431736 0.7916828 -0.16423397 0.23086178 0.09954377 0.2753358 0.2072524 0.32619822 0.3603674 0.21363589 0.42015308 0.40229583 0.49642283 0.47788703 0.4393441 0.44286323 0.4455479 0.43692553 0.35729492 0.53043234 0.51129085 0.47795916 0.43920988 0.31740358 -0.19856869 0.53733623 0.26877898 0.3581123 -0.009733334 0.06839308 0.1887716 0.075688705 0.11103394 -0.06293705 0.19741458 -0.06260586 0.23338881 0.058097966 0.27498332 0.29585215 0.26772758 0.3193657 0.34284887 0.3651089 0.2896868 0.32994938 0.3754271 0.06798845 0.3579909 0.14955321 0.1796413 0.32249933 0.14790724 0.15535934 0.5329859 0.062856525 0.6248812 0.6510672 0.08463196 0.75096226 0.1948665 0.76029515 0.24440688 -0.07216245 0.01716731 0.7370571 0.28213125 0.28474158 -0.11598003 -0.008073773 -0.040937074 -0.049403116 0.037664656 0.77923393 0.7648175 0.2894192 0.30029082 -0.16403472 -0.114622764 -0.1096957 0.50548726 0.74708474 0.8447044 0.8017105 0.7769629 0.29659855 -0.2709746 -0.27692044 0.049953382 -0.094015956 0.38430437 0.36992216 0.08801439 0.4182945 0.34254393 0.033505946 0.3897903 0.3033413 0.13534254 0.07863432 0.25997895 0.5347375 0.5273737 0.41740182 0.3204416 0.29913813 0.4228176 0.5147164 0.23740503 0.21790881 0.22626093 0.27917457 0.5280001 0.5081691 0.26520914 -0.03149435 0.27200353 0.4780991 0.5320799 0.13095264 0.40785202 -0.027886823 -0.010898724 0.29289186 0.31203192 0.20242786 0.104989484 0.1659841 0.22896253 0.2403751 0.001978889 0.28242922 0.24013129 0.400846 0.4035427 0.3892161 0.08702589 0.08408026 0.24582997 0.20897192 0.15252337 0.22535846 0.18265373 0.30216277 0.12283228 0.11180884 0.51583993 0.6030357 0.100512356 0.46910816 0.5889 0.13962826 0.17474091 0.70352113 0.24066019 0.72181034 0.2754535 0.10399396 0.75133026 0.7401447 -0.10370399 -0.083131805 -0.04616334 -0.052031852 0.11285047 0.79859746 0.8350738 0.7997651 -0.22337216 -0.034965307 0.13465023 0.42880663 0.4770841 0.4624498 0.46057114 0.4535635 0.09140939 0.5103556 0.5750705 0.61314654 0.6393663 0.4633118 0.47664624 0.075638026 0.13574448 0.58743393 0.67871815 0.68083185 0.47280353 0.48791614 0.47229418 0.06952688 0.10511889 0.13660139 0.2185493 0.11433587 0.10810306 0.51120603 0.5208571 0.46969843 0.34637406 0.30985373 0.29664475 0.34199145 0.4587593 0.48760462 0.25585583 0.3075584 0.35361856 0.40057182 0.42428732 0.29426587 0.06413572 0.343832 0.23204258 0.36380237 0.48668468 0.50763404 0.448954 0.413427 0.18841818 0.17179684 0.5191482 0.5295784 0.5462669 0.35849443 0.3315245 -0.009370625 0.2524964 0.48509467 0.2815499 0.20515513 0.10734622 0.2536959 -0.013886586 0.044166684 0.23299731 0.24955833 0.1941585 0.14751212 0.11536243 0.3214357 0.37532166 0.4611761 0.43227494 0.5136584 0.48019707 0.5096637 0.5346712 0.4703517 0.4372089 0.3594479 0.37162906 0.22721577 0.23679732 0.2438448 0.23947506 -0.089003265 0.25018048 0.25512138 -0.068155184 0.2370286 0.0056384467 0.108559385 0.08971783 0.071373805 0.14320417 0.15192254 0.20315108 0.21960278 0.686761 0.22627899 0.7028552 0.7215446 0.37071493 0.051703677 0.72850883 0.76712215 0.4812783 0.019758381 0.48347306 0.33857852 0.49654144 0.5052097 0.3360456 0.6871347 0.50077933 0.517282 0.13852075 0.07259701 0.625046 0.68735063 0.70955354 0.7118641 0.7002622 0.52436465 0.53031373 0.49478614 0.13376164 0.7023868 0.7250792 0.72022843 0.20394295 0.10432358 0.13803813 0.13685034 0.14310674 0.29236004 0.29288998 0.287097 0.34458947 0.42504534 0.5050589 0.4968516 0.43602577 0.4290685 0.38677827 0.41339874 0.47280037 0.4662872 0.47493303 0.35927126 0.32748997 0.48326832 0.50653875 0.30460504 0.01982595 -0.027891152 0.553065 0.5760045 0.30192983 0.069438696 0.5828823 0.61802566 0.25065318 0.2105689 0.47948617 0.5594749 0.6384246 0.64889985 0.16542761 0.20836322 0.12657654 0.11631835 -0.0056925267 0.33553046 0.4155692 0.4914667 0.4149012 0.37939984 0.54939574 0.5736104 0.4914499 0.4684942 0.32737404 0.5850301 0.41662538 0.4109237 0.520343 0.25230253 -0.046316825 0.33456916 0.2017293 0.12934871 0.0052671954 0.2646994 -0.059188038 0.26091778 0.25060722 -0.00049187616 0.24474508 0.16347185 -0.0020294674 0.08573544 0.017034363 0.082578346 -0.19960769 0.019575661 0.12614217 -0.028266437 0.20657995 0.20505863 0.084533684 0.05233273 -0.002204828 0.00044681132 0.0037332028 0.010074824 0.2299824 0.16365172 -0.14136747 -0.03225173 -0.098631464 -0.09905969 0.45193264 