# vtk DataFile Version 2.0
Really cool data
ASCII
DATASET POLYDATA
POINTS 2736 float
24.406935 22.673761 -1.8296276
24.253649 22.815174 -1.3910799
24.269463 22.75811 -0.9011605
24.304243 23.4527 -1.8984241
24.144783 23.47505 -1.4349188
24.205835 23.440344 -0.7344719
24.390755 23.428812 -0.19077757
24.3286 24.052465 -1.8527508
24.273201 24.13854 -1.382586
24.250868 24.277842 -0.89661515
24.283834 32.92591 -4.771748
24.19023 32.875076 -4.3699026
24.199436 32.61983 -3.6804385
24.204542 32.843315 -3.1238534
24.3354 33.621944 -4.96197
24.05671 33.374706 -4.2595305
24.087296 33.410828 -3.5969558
24.269274 33.44061 -3.0981078
24.416132 34.601845 -5.1668878
24.251892 34.386864 -4.496981
24.284729 34.23174 -3.662164
24.32823 34.00779 -3.2024136
24.42023 35.01987 -4.9234767
24.368801 35.15405 -4.604938
24.348656 34.857944 -4.042918
24.968044 22.068102 -1.9699721
24.826298 21.907228 -1.3006208
24.920172 21.889385 -0.6501702
25.027342 22.142029 -0.20612913
25.04892 22.889616 -2.7067883
24.783472 22.653442 -2.307731
24.432491 22.4575 -1.6823581
24.574621 22.37373 -0.5034592
24.841755 22.573284 -0.10057458
25.070671 23.487028 -2.7573993
24.633463 23.310623 -2.3737876
24.666267 23.221642 -0.036712795
25.206942 23.9999 -2.640011
24.454237 24.539827 -1.2803689
24.528557 24.539726 -0.6859747
25.069979 24.360641 0.19134837
24.839426 25.019842 -1.2642037
25.039341 25.34538 -0.6594937
24.978338 24.824612 -0.1174995
25.18617 31.059649 -4.141093
25.326689 30.805964 -3.3860996
24.868765 32.06058 -4.820284
24.7109 31.88097 -4.3210583
24.719341 31.732866 -3.5696158
25.020311 31.69945 -2.824824
24.897459 32.2339 -5.0053983
24.711979 32.63876 -2.7076404
24.90655 33.779385 -5.814833
24.784924 33.489582 -5.5686665
24.639334 33.818207 -2.7098129
24.930033 34.369293 -5.953399
24.51165 34.792263 -5.4199567
24.419598 34.249832 -3.3671117
24.714817 34.276443 -2.7918515
24.951841 35.318577 -5.8206186
24.603092 35.39406 -5.2427216
24.555725 35.506012 -4.471884
24.779688 35.358437 -3.8599968
25.000822 35.982277 -5.3687773
24.926878 36.05247 -4.656111
25.163406 35.933628 -3.991808
25.543478 21.985155 -2.1396673
25.36471 21.685808 -1.4142039
25.416204 21.69998 -0.62915826
25.612482 22.009003 -0.035788
25.622345 22.740309 -2.8359447
25.333101 23.01006 0.4778354
26.204687 23.070747 1.0519937
25.602224 23.247057 -2.9777026
25.436209 23.498125 0.5515753
25.805351 23.639202 0.99633825
25.688923 24.245413 -2.7521737
26.179287 24.279055 1.2761111
25.829708 25.217041 -2.08878
25.600845 25.491611 -1.7095416
26.219252 25.621033 0.9889448
25.730457 26.207565 -0.6127007
26.265745 26.193851 0.57670635
26.274868 26.825119 -1.2195828
25.856667 30.400251 -3.7765396
25.65574 31.082909 -5.0260477
25.72167 30.79571 -4.4958816
25.70853 30.741564 -2.761076
25.533514 31.53497 -5.20653
25.887863 31.668587 -2.052839
26.274643 32.390923 -6.398899
25.380466 32.710632 -5.606521
26.249912 32.26874 -1.6339896
26.20323 33.611256 -6.7328677
25.55392 33.571682 -6.3423324
25.791378 33.511307 -1.8645836
25.841696 34.548256 -6.632412
25.41018 34.261623 -6.330778
25.520443 34.096073 -2.144681
25.419483 35.504814 -6.1779304
25.416245 35.124706 -2.9442682
26.465368 35.88793 1.3998035
25.237381 35.949177 -5.713338
25.299187 36.15563 -5.4133067
25.568506 36.40982 -4.713091
25.869528 35.672375 -3.2858348
26.463217 36.366234 1.5807668
25.900503 36.540417 -4.975497
26.27911 22.125685 -2.2677343
26.217604 21.699717 -1.4666861
26.362036 21.965307 -0.031785637
25.985981 22.800085 -2.8439028
26.496529 23.054052 1.1900082
26.259476 23.587576 -2.9240985
26.380991 23.2579 1.3427258
26.392548 24.303408 -2.871916
27.032608 24.94464 1.8645836
26.932364 25.42238 -2.6650681
26.590036 25.601603 -2.3319645
26.508865 25.335077 1.3782264
26.858349 25.331673 1.7355827
27.026936 26.718416 -1.960841
26.412098 26.598305 -1.600173
26.539864 26.466812 1.0725429
27.223063 26.589212 1.9034383
27.023636 27.0373 -1.8303047
26.58876 27.260103 -0.45655006
26.648222 27.241838 0.47995
27.284464 27.239288 1.2592411
27.189705 29.217527 -2.7724938
27.146599 28.181889 0.43073508
27.068361 30.21074 -5.4570217
27.338211 29.84547 -4.6505365
26.638016 29.857088 -3.2531936
27.342672 29.432924 -2.8513856
27.406656 29.946136 -0.95892864
27.391056 31.937813 -7.933621
27.270802 31.77017 -7.339158
27.048723 31.29863 -6.009184
27.390516 32.682564 -8.062594
26.516472 32.52585 -6.3679867
27.246243 33.050835 -7.337235
27.415476 33.609024 0.9786858
26.744555 34.067326 -1.8830512
27.305183 34.384266 0.016024262
27.265608 34.78478 0.75681424
27.119951 34.606865 1.4312133
27.15045 34.92789 2.2452269
26.845499 35.39226 -6.379819
26.589321 34.89561 -2.5020542
26.708548 35.88859 0.6937811
26.651659 35.5714 1.449562
26.776283 35.7495 2.3336494
27.11976 35.843014 2.9471445
27.328596 36.861397 -6.0375233
26.501177 36.17363 -5.680509
26.605963 36.232132 -3.8733542
27.087599 36.318962 0.024793178
26.62263 36.41622 0.7668264
26.514717 36.437862 1.6375153
26.70434 36.44213 2.3805346
27.075283 36.372787 2.9366276
27.240261 37.583775 -5.2288904
26.85142 37.097935 0.8002192
26.795557 37.233883 1.5481282
26.969767 37.18577 2.3822956
27.135708 36.958694 2.8093178
27.245085 38.473576 -7.1127815
27.231606 37.69196 0.8999413
27.145428 37.73125 1.7565758
27.272345 37.764816 2.005025
27.41471 39.45521 -8.072591
27.276203 39.533154 -7.2919292
27.01962 39.564957 -6.3309903
26.926628 39.567406 -5.4885874
27.12104 39.600475 -4.8183475
27.265505 40.16801 -6.4465437
27.143654 40.126183 -5.4831696
27.255938 40.00739 -4.903709
27.012815 21.861702 -1.5220197
27.382341 21.837202 -0.74675155
28.12415 21.89733 0.7044816
27.283949 22.386642 0.74761647
27.34814 22.5531 -2.1680956
27.531185 24.002329 -2.5882056
28.058414 23.513704 1.8730007
27.319275 24.270407 -2.657881
27.210297 25.085077 -2.6707659
27.764399 25.51575 2.3304303
27.83332 26.214972 -2.4876616
27.32747 26.170761 2.0831697
28.273352 27.927118 -5.4376044
27.993355 27.903807 -4.351196
28.181742 27.489708 -3.6372035
27.753664 27.731441 -2.239531
27.77129 27.380291 1.9425923
28.15366 28.389126 -5.9732146
28.014204 28.431364 -5.3360906
27.66035 28.097618 1.3549885
28.389936 29.075634 4.875774
28.385546 28.913792 5.5024185
28.26371 28.941141 6.207318
28.235384 29.725853 -7.3570824
27.681705 29.677982 -5.2904687
28.14108 28.815773 1.6497582
28.373285 29.372826 4.6894975
28.160002 29.552341 5.5983977
28.214834 29.503067 6.43962
28.402855 29.585417 6.8701367
27.91372 30.966515 -8.05718
27.823887 30.687122 -7.6191387
27.78265 30.29764 -6.0870214
27.486525 30.449657 -0.9625846
27.977043 30.83088 -0.03476563
28.145811 30.38482 5.778876
28.304577 30.315855 6.4492292
28.214445 31.767805 -9.0801735
27.749203 31.581438 -8.415298
28.018105 31.984825 1.0170324
28.088202 32.373264 -9.082343
27.633493 32.290794 -8.478414
27.592869 33.12973 1.6328521
27.743067 33.179195 2.1367016
28.032543 32.956036 -8.959073
27.53655 33.061073 -8.248923
27.594349 33.36887 1.8647598
27.756138 33.529274 2.3243234
27.40843 34.30302 -7.2773023
27.728664 34.739662 2.832087
27.408295 34.929615 -2.3592994
27.918875 35.19091 -1.3759266
27.46102 35.767036 3.2116656
27.81513 36.183018 -6.47679
27.524023 36.702927 -0.07773006
27.580614 36.488728 3.2457964
28.021275 38.22471 -9.915395
27.761726 37.96382 -8.375024
27.58712 38.025246 -7.790305
27.689474 37.18577 -3.4640896
27.993431 36.842934 -2.6871288
27.49345 37.04534 0.13056019
27.796318 37.586338 0.43707266
27.467522 37.606453 2.6270084
27.559813 37.102875 3.0348573
28.21719 38.430687 -11.013408
27.968267 38.710434 -10.685109
27.599016 38.939648 -8.597592
28.088615 37.686516 0.4078333
27.741617 38.11777 1.552797
27.682697 37.981983 2.135059
28.2936 39.97483 -14.346467
27.967878 39.526943 -10.3118
27.768393 39.49376 -9.3494625
27.765263 39.33348 -4.2102747
28.12687 40.362587 -14.440339
28.253849 40.958332 -13.220373
28.117887 39.96727 -10.962589
27.976023 40.0486 -10.204514
28.037104 40.11255 -9.433404
27.76105 40.10855 -8.338499
27.57529 40.36378 -7.0307302
27.472178 40.556725 -5.943875
27.40609 40.49079 -5.709677
27.6648 40.332283 -4.792324
27.832878 39.94672 -4.2889514
28.386435 41.41981 -15.124776
28.187899 41.413605 -14.424241
28.187614 41.29068 -13.63459
28.297781 41.24435 -11.340949
28.381445 40.8919 -10.234919
28.23634 40.604156 -8.008964
28.115961 40.747627 -7.4075594
27.830755 40.744423 -6.4368715
27.847933 40.773098 -5.568424
28.092634 40.711197 -4.9852166
28.387037 42.08962 -13.983321
28.463955 41.88393 -11.818343
28.897675 21.139221 0.8688196
29.066277 20.783651 1.3553805
29.087002 20.935463 2.209509
29.27489 21.218948 2.9391515
29.155952 21.895382 3.2933593
27.978073 22.727032 -1.8213776
28.55442 22.505524 -0.97615564
28.839886 22.848877 2.3928888
28.669504 24.171188 -2.0113928
29.2156 23.519573 3.190476
29.391901 23.22617 3.9747524
29.30493 25.79114 -6.2528934
29.179243 26.116488 -5.1163316
28.516365 25.403635 -2.7173867
28.41319 25.70998 2.4302285
29.09572 25.274426 2.831728
29.337889 26.653397 -7.450813
29.03814 26.693521 -6.32916
28.67339 26.848734 -5.414469
28.712685 26.638132 -4.4624457
29.301405 26.750824 3.1897779
29.398157 27.092201 -7.940899
29.19285 27.487425 -7.4212584
28.701658 27.402737 -6.574149
28.833666 27.129274 3.0420358
29.171873 27.286703 4.9041243
29.131998 27.524601 5.3175554
29.200325 27.515234 6.410156
28.49927 29.140217 -6.8502665
28.722725 28.616652 3.204091
28.751436 28.547598 4.5399776
28.594124 28.597483 5.6122327
28.69057 28.57 6.329503
28.8808 28.727211 7.077784
28.771559 29.98604 -8.16169
28.602047 29.586918 -7.5304866
28.643795 29.49282 7.1015067
29.294662 29.517921 7.763906
28.6353 30.888279 -8.923332
28.394924 30.526125 -8.4229145
28.730148 30.78227 3.5037203
28.47837 30.628668 6.599684
28.593235 30.272196 6.982969
28.816912 31.896082 -9.589752
28.553514 31.539534 -9.229693
28.872824 31.544931 2.8130965
28.837732 31.49693 5.529047
28.784649 31.25884 6.2424955
29.119125 30.982113 6.978429
28.469015 32.298515 -9.385436
28.851585 32.5427 2.953966
29.20193 31.639385 4.8395014
28.737482 33.104458 -9.242115
28.337643 33.882797 3.060141
[...]
POINT_DATA 2736
SCALARS features_00 float 1
LOOKUP_TABLE default
0.87480813 0.86949885 0.85998607 0.8440839 0.83870906 0.81633836 0.77344817 0.804757 0.7887176 0.7586791 0.5825468 0.6132442 0.63516164 0.6267196 0.58754027 0.6149423 0.6101974 0.59887147 0.6117363 0.6097426 0.59544253 0.58485055 0.6318803 0.6294397 0.6052798 0.8933611 0.9023788 0.8604837 0.78321683 0.8366482 0.8637736 0.8841816 0.84205496 0.76358676 0.79469967 0.83895415 0.7427289 0.74577487 0.7384496 0.7172277 0.60121495 0.67396903 0.6134435 0.60894173 0.43462163 0.4430043 0.47980073 0.5288865 0.5715808 0.586128 0.466879 0.6155973 0.4933442 0.49940234 0.5596381 0.542374 0.61414045 0.58416903 0.54697096 0.61441845 0.643072 0.6334759 0.6025073 0.64025706 0.6452755 0.61893296 0.8892 0.91179687 0.84526324 0.7082678 0.81460726 0.62121505 0.461437 0.7628993 0.5572399 0.43905327 0.64933467 0.33620232 0.5405834 0.5599983 0.3270337 0.49267155 0.34938246 0.37962264 0.31809503 0.30940115 0.3232872 0.4227747 0.3343851 0.491674 0.18839617 0.37454128 0.4740077 0.24683191 0.3552267 0.50330037 0.41682476 0.45988297 0.4866275 0.5667981 0.49995223 0.66874105 0.6126236 0.62147856 0.6154709 0.4489166 0.73524916 0.56662357 0.85522985 0.8726227 0.6730983 0.7830471 0.4141388 0.6548172 0.37283292 0.57784593 0.22093675 0.41761822 0.41574788 0.29778612 0.2567451 0.2760504 0.3599434 0.28911602 0.22649847 0.25326526 0.4117171 0.31616542 0.23863406 0.04381618 0.17196167 0.07855433 0.06421877 0.18733422 0.080104455 -0.037998218 0.276951 0.20366398 0.12402777 0.26190192 0.17486398 0.17253056 0.29302043 0.2597902 0.28036594 0.42625147 0.44194567 0.53315425 0.30468437 0.236694 0.64206743 0.6155372 0.6684105 0.66442573 0.13225998 0.4311374 0.35559225 0.6236657 0.7109153 0.7431314 0.7423909 0.7157015 0.2346192 0.72755665 0.7654042 0.7598796 0.74204385 0.30508244 0.67511094 0.7360154 0.7335305 0.3320164 0.38174826 0.42720833 0.4850528 0.49983674 0.45337695 0.50142187 0.50808555 0.7528634 0.6397491 0.3588616 0.46281484 0.6791947 0.50664085 0.051002882 0.48728597 0.42642474 0.14259823 0.2369676 0.21249193 0.095725365 0.030589169 -0.073419824 -0.17575797 0.16024606 0.05341553 0.030478708 0.17023136 0.28852755 0.35117388 0.41287714 0.1454054 0.012203839 0.039436966 0.28767923 0.43614846 0.48174822 0.4949466 0.3075157 0.2457059 0.06999509 -0.06574417 -0.19363417 0.5289698 0.53158283 0.37284946 0.3401538 0.019378774 0.36489964 0.32938895 0.2687153 0.27706993 0.33190176 0.2594396 0.31217474 0.3331703 0.14944628 0.48996556 -0.010828644 -0.32700822 0.62965715 0.07185578 0.5866358 0.6858871 0.25950152 0.266346 0.26366827 0.03386534 -0.056360297 0.6329854 0.5811174 0.7311969 0.71868396 0.24479266 0.3020081 0.31057304 0.51867944 0.6252415 0.687042 0.40205368 0.23653924 0.25522837 0.36914274 0.44527906 0.34980416 0.1850605 0.16588819 0.18417251 0.30637044 0.4302581 0.4867006 0.4974594 0.49571246 0.42976564 0.40761048 0.39943 0.36509752 0.0928472 0.105361044 0.3266012 0.3923046 0.4526725 0.49809176 0.49480844 0.29604205 0.13720572 0.3840886 0.4114414 0.44277975 0.46545285 0.46051782 0.5392384 0.39572787 0.21500725 0.42858654 0.117436394 0.2549377 0.38780218 0.29826874 0.30954462 0.0307336 -0.16144994 0.39709243 0.3276193 0.22923967 0.17640336 -0.2171942 0.35670602 0.27080658 0.22614443 -0.10322672 0.064500526 0.16767022 0.21486828 0.047291916 -0.058004886 0.17573318 0.32021534 0.36168098 0.39957172 0.2620548 0.15712684 0.4823612 0.43217123 0.34234625 0.32053587 0.086226 0.5311973 0.515718 0.34391057 0.36467212 -0.04637154 0.4374208 0.49675322 0.47076273 0.36325338 0.15606973 0.2751021 0.30294573 0.36344415 0.15962386 0.41269317 -0.23273441 -0.021482412 -0.25064582 0.52247906 0.025022669 -0.011729782 0.62474704 0.14212075 0.09415723 0.07468374 0.12550259 -0.013184723 0.38486856 0.6652831 0.40127546 0.28417897 0.20992899 0.13419122 0.08562447 0.5057209 0.6597905 0.44068944 0.38034403 0.21154583 0.17329389 0.48679367 0.42217302 0.3337134 0.45363173 0.10452318 0.10542132 0.23781286 0.4708705 0.46241707 0.29854828 0.33381814 0.17446844 0.25043523 0.48830688 0.49209297 0.39717937 0.29360843 0.19139594 0.2400628 0.2667911 0.29176065 0.5612798 0.53232455 0.49821043 0.27779055 0.29974484 0.55418336 0.50696456 0.4277612 0.47399116 0.47922274 0.48103094 0.4739846 0.4619925 0.47805896 0.4688768 0.41342556 0.3943777 0.40138537 0.36868632 0.38090497 0.34672388 0.3492083 0.22727653 0.23610897 0.45488966 0.45372042 0.39972037 0.3189177 -0.13850684 0.11555551 0.40187907 0.4457928 0.47363198 0.4173103 0.43807 0.44022405 0.33981687 0.29994792 -0.26476747 -0.08131027 0.3972993 0.42098892 0.39069113 0.000597205 0.05134038 0.3621218 0.34389025 0.17273016 0.29407078 0.27465832 0.25986755 0.31541955 0.37446338 0.2274758 0.21641341 0.011950355 0.16933012 0.052426428 0.28034604 0.3629853 0.09634223 -0.03896325 0.2258779 0.030824535 -0.07307951 0.54766446 0.52653944 0.24754423 0.15292336 0.06643954 0.030353848 0.55410093 0.39174265 0.31813657 0.08044605 0.16825634 0.4685027 0.5473187 0.068516254 0.1530695 0.07894829 0.09248081 0.34763443 0.22297001 0.07456171 0.18785363 0.13183632 0.17999639 0.3325922 0.40463924 0.20311788 0.009427622 -0.10008904 0.14361373 0.31333515 0.60079443 0.22191742 0.15257543 0.3138237 0.32523534 0.59032 0.5584677 0.51403916 0.447141 0.27007788 0.30166745 0.34248805 0.5174627 0.4895668 0.4602167 0.40534687 0.5527942 0.5121833 0.49834374 0.5405067 0.52886945 0.41157278 0.384445 0.34159702 0.38008177 0.33550492 0.32694066 0.29736665 0.4467019 -0.16362356 0.29565665 0.4787313 0.5024918 0.5167689 0.5450006 0.41586447 0.4414538 0.4559383 0.39266503 0.18142773 0.11491825 0.44214833 0.4825106 0.5088421 0.53759253 0.3693822 -0.0945043 0.21629816 0.29075247 0.46768728 0.49333882 0.29939768 -0.06398188 -0.05627423 0.17479557 0.29229566 0.3513187 0.24952796 0.3031802 0.30122024 0.2354235 0.24005704 0.25064218 0.15090102 0.015962489 0.1653186 0.16642897 0.21812159 0.16432376 0.14138584 0.071212985 0.21334559 0.062888764 -0.11833855 -0.00709185 0.21448797 0.3770138 0.25511843 -0.16611917 0.470593 0.38751167 -0.066067204 0.36423975 0.45347446 0.061321728 0.12463078 0.43600446 0.16687591 0.17873256 0.59326196 0.5458355 0.21264532 0.23948503 0.5938292 0.58696854 0.23828742 0.24601105 0.5353326 0.048839517 0.08508772 0.4335221 0.37585235 0.019535378 -0.07144373 0.17042989 0.11051048 0.049864084 0.34296063 0.17655043 0.10889178 0.15227322 0.21672276 0.18741408 0.14800796 0.09733722 0.5800007 0.48986596 0.11287854 0.096764885 0.17639285 0.20044497 0.14077091 0.6707651 0.6644285 0.3467361 0.31245786 0.6184613 0.38026577 0.40230525 0.56101245 0.5199925 0.45826337 0.43592674 0.4154579 0.39334083 0.4053535 0.43669724 0.43755144 0.4240207 0.58222985 0.5823058 0.55470896 0.4420696 0.57299966 0.3507498 0.31502622 0.31091818 0.46323398 0.49465555 0.30250126 0.17909817 0.27555758 0.21234815 0.46687615 0.5454197 0.61585665 0.64156127 0.4405011 0.45848602 0.43941876 0.2154524 0.13792662 0.6193838 0.6109714 0.39908624 0.36462846 0.41760218 0.13813965 0.5734858 0.36137307 0.5020503 0.34545434 0.25715032 0.3448234 0.26665163 0.10900366 0.230663 0.2622662 0.42603272 0.16233051 0.29523292 -0.0198382 -0.027442819 0.086825006 0.09866738 0.25980455 -0.026919711 0.024410756 0.11187868 0.40337384 0.31557786 0.44797355 0.55188453 0.30131984 -0.05509816 0.007842317 0.289258 0.40315577 0.5346371 0.6059039 0.571929 0.49315155 0.05159381 0.30260974 0.514075 0.6580411 0.6801811 0.6326866 0.07200277 0.045954064 0.008862361 0.15266438 0.329161 0.5470655 0.65860295 0.70875967 0.16106492 0.13312821 0.040615533 0.13228378 0.4880017 0.6101285 0.6606976 0.6130776 0.5704491 0.23088694 0.17734452 0.5054333 0.5777504 0.6140096 0.6224359 0.18101196 0.23915805 0.21560888 0.58032954 0.1848993 0.41976056 0.030842979 0.08335265 0.17070273 0.46389565 0.11876752 0.10918209 0.049384177 0.16013324 0.32090598 0.33360046 0.6497761 -0.1899541 -0.06378239 -0.04660966 -0.03472001 0.08389108 0.14153321 0.14156161 0.085405976 0.2614517 0.47838682 0.7098595 0.70746773 0.1291636 0.091690645 0.5409641 0.69316304 0.34824157 0.6602074 0.6251205 0.4517474 0.37833673 0.52937734 0.482368 0.5117507 0.48584774 0.46549678 0.48326948 0.46693224 0.47498962 0.5780253 0.5116883 0.47437912 0.56669784 0.5702491 0.4279819 0.3318178 0.2881734 0.28242952 0.2685787 0.45016354 0.2855932 0.52571553 0.5834867 0.22202052 0.16804191 0.16583914 0.5567289 0.60391635 0.62406015 0.6134944 0.5798629 0.5336502 0.20462601 0.6172343 0.5544024 0.51477826 0.3941338 0.06642223 0.011305928 0.19138725 0.5251854 0.4952997 0.55114424 0.50433385 0.47161365 0.42990136 0.4003293 0.34625328 0.36849853 0.31484446 0.38021326 0.58084106 0.3021204 0.27539623 0.4286353 0.4855139 0.63899374 0.5231613 0.58437765 0.047908027 0.42965627 0.081491634 0.36359954 -0.022492476 0.4748044 0.043764107 0.51615465 0.4604905 0.58267504 0.42179993 0.4290985 0.64825165 0.30767155 0.4210006 0.6659734 0.67502 0.6100827 0.5490233 0.18727276 0.06501399 0.03108297 0.23206955 0.4694124 0.5724088 0.61770415 0.59782696 0.20491216 0.5889486 0.18914443 0.20226884 0.5482173 0.19161156 0.39361823 0.5199529 0.7151115 -0.033807725 -0.15376535 0.5386816 0.6207916 0.72294146 0.7265909 -0.04065738 -0.035972297 -0.058622424 -0.24018174 -0.12700562 0.009406292 0.37428826 0.5543381 0.6204504 0.7132546 0.6960448 0.3122118 0.026734382 0.058665715 0.4832836 0.58475244 0.6484262 0.70923454 0.61876804 0.5077335 0.46757436 0.36474347 0.29378256 0.17970431 0.57669604 0.530314 0.51259565 0.5103991 0.55182934 0.5572096 0.5229088 0.5663378 0.5610142 0.5791016 0.6088263 0.6013074 0.50987387 0.55935705 0.5017799 0.35419375 0.2598942 0.2503658 0.23986353 0.23676303 0.21163657 0.43317842 0.18576348 0.23391612 0.43406257 0.5476023 0.5946975 0.1168747 0.12695849 0.43761396 0.57855594 0.5761665 0.63984835 0.6283182 0.63610685 0.18574557 0.22060007 0.5617175 0.63352907 0.6391622 0.32691273 0.18638596 0.06943937 -0.04842831 0.49368754 0.58863705 0.60010755 -0.2498965 0.5239804 0.53826857 0.39469633 0.61860496 0.4991581 0.47505432 0.6556877 0.6886058 0.40820688 0.71105146 0.19738343 0.5587514 0.6588636 0.23899451 0.5694238 0.27770036 0.2485673 0.19411437 0.38436943 0.4375763 0.50379145 0.28069 0.31906968 0.5480801 0.6298224 0.61167943 0.2527857 0.43042737 0.5287086 0.60366666 0.53937393 0.48642507 0.27547082 0.33716834 0.56286955 0.40333053 0.35649237 0.5112609 0.23035294 0.53681725 0.57381576 0.70528555 0.66120446 0.6342973 0.65746075 0.7035161 0.64986056 -0.00710281 -0.11980297 0.051156405 0.7378259 0.71093535 0.6770116 0.63060486 -0.13859946 -0.00090850145 0.048739374 0.12823965 0.16660705 0.3587146 0.5115615 0.7020731 0.7580905 0.59829736 0.571061 0.43349853 0.34955415 0.19325347 0.17447452 0.24667162 0.5460064 0.6523049 0.5861875 0.6264471 0.52892643 0.41764462 0.4620298 0.48877764 0.44176447 0.5141375 0.45538408 0.28068143 0.63140535 0.6030613 0.5328383 0.47900304 0.5034213 0.5803218 0.61541986 0.5857124 0.5188443 0.61807317 0.58625233 0.53908277 0.21069351 0.22797298 0.22613391 0.21167684 0.15811479 0.16399331 0.4876608 0.508266 0.52637553 0.66847914 0.68397814 0.70301294 0.21983321 0.43788752 0.4632675 0.64178896 0.6570364 0.48868257 0.32186335 -0.08018224 0.071859725 0.39192748 0.59177864 0.62771034 0.18212207 -0.1926082 -0.17133614 0.2200912 0.54642844 0.63116455 0.49079123 0.68048507 0.73884785 0.32627153 0.756302 0.19029997 0.67972755 0.34294146 0.62115514 0.38558224 0.50379556 0.42218146 0.35476363 0.41324896 0.057209834 0.41653484 0.13339692 0.19953431 0.17210057 0.09655742 0.2581107 0.1590504 0.23748845 0.29840064 0.5320447 0.6208074 0.47949904 0.47258812 0.20685352 0.6352086 0.62091255 0.54990774 0.46680164 0.3481417 0.72814727 0.71343064 0.5908978 0.5274773 0.47072458 0.43827826 0.3701449 0.34777397 0.11120562 -0.29264048 -0.08550403 0.76206136 0.53355944 0.5194311 0.41568446 0.30896628 0.35331196 0.29209152 0.2796348 0.72671986 0.57971203 0.60223967 0.55045325 0.48507422 0.38286874 0.3892839 0.44352067 0.21334493 0.3549984 0.39265427 0.47707164 0.5461163 0.35586107 0.443045 0.52873826 0.5540843 0.5597421 0.45742697 0.21199724 0.22430427 0.22413889 0.02811894 0.23975094 0.3452567 0.40336138 0.67482316 0.70527315 0.7325447 0.17316765 0.3773076 0.6245481 0.6442025 0.55186987 0.075522184 0.338219 0.58093387 0.59603477 -0.2706162 -0.21636987 -0.19097078 0.5411655 0.54473686 0.35143608 0.5096428 0.50562274 0.5608702 0.6259127 0.70799595 0.37609917 0.76303196 0.2640672 0.7481479 0.34025103 0.70616597 0.679448 0.40673292 0.44230294 0.42669365 0.28377473 0.14099446 0.19982985 -0.10802492 0.13169095 0.21446806 0.18222421 0.23904489 0.21512714 0.10915746 0.066058435 0.27212635 0.08841079 0.29040745 0.23494904 0.2625503 0.51992327 0.54776835 0.5825352 -0.12588818 0.64684683 0.45388585 0.4205428 0.095008284 -0.02764456 0.6336256 0.6867998 0.39867523 0.14295219 0.32685068 0.37233096 0.4139858 0.34093505 0.3857972 0.20220411 0.14730398 0.45529434 0.47566742 0.40611702 0.36506152 0.34050637 0.33954167 0.29756773 0.23726554 0.28444344 0.13325569 0.07179633 0.22315603 0.15995935 0.25846785 0.13919495 0.27194065 0.3331833 0.5928805 0.6287929 0.58267486 -0.07617958 0.31980628 0.57105356 0.54183567 0.16712838 0.503404 0.44747365 0.52279407 0.6002834 0.5148919 0.56442016 0.66778135 0.21332031 0.6966629 0.3499819 0.6881768 0.40574235 0.4428602 0.35180002 0.3187491 0.17373475 -0.20589799 0.13429219 0.22734067 0.2770017 0.14879233 0.4653569 0.4008984 0.22058262 -0.24489379 0.021090455 0.45544377 0.5737168 0.52344894 0.48776507 0.26165223 0.22307996 -0.1838891 0.5234081 0.5601103 0.5132141 0.24558447 -0.17731658 0.60027575 0.641552 0.29291308 0.19908792 0.40624088 0.45166734 0.008757532 -0.07945122 0.39199504 0.4622128 0.57123315 0.4718888 0.31937712 0.004352056 0.1692432 0.25509584 0.343979 0.38654524 0.10699852 0.24548015 0.113983735 0.29623938 0.33058333 0.26141107 0.22399709 0.3418105 0.37797216 0.33066523 0.3520603 0.27865526 0.13668835 0.28105146 0.24545187 0.22669828 0.25784573 0.42814517 -0.03896071 0.2561912 0.44500947 0.4086813 0.35357904 0.15505931 0.1718791 0.46662664 -0.120277934 -0.054788724 0.08936983 0.008509055 0.1583468 0.35708153 0.039153088 0.14949119 0.2146486 0.3052035 0.061831642 0.39812478 0.34541544 0.3962293 0.37273479 0.28859723 0.28665537 0.25276244 0.27426445 0.26349798 -0.1921351 0.2149031 0.29620877 -0.06346268 0.41324246 0.39430317 0.016269322 0.32460028 0.4692704 0.048979715 0.022651702 -0.13952263 0.35404053 0.49599543 0.19019783 0.09049643 -0.09607383 -0.073004745 0.41835755 0.48480394 0.65629375 0.61285764 0.17382555 -0.13010693 0.58294725 0.64562684 0.6259657 0.20600915 0.27487218 0.1923405 0.088241614 0.2152569 0.13305578 0.10615965 0.2673694 0.06398625 -0.020943575 0.2544883 0.32059082 0.3105039 0.09271777 0.1750159 0.09975916 0.25624514 0.229346 0.33508933 0.42467645 0.29274404 0.40167964 0.43180346 0.29555655 0.3528555 0.2869013 0.2066484 0.49846888 0.46908772 0.43128103 0.39622468 0.3219118 0.06335815 0.11193472 0.15854254 0.23282465 0.26300293 0.5045017 0.4666692 0.057442263 -0.031009028 0.26359838 0.24193242 0.42994452 0.1545975 0.32630175 0.0736071 0.038291413 0.11094996 0.04903189 0.1130707 0.13318865 0.10671203 0.1903936 0.23261322 0.20219824 0.06417048 0.29825345 0.13772799 0.23257439 0.28985977 0.3013823 0.26467362 0.24489205 0.13523018 0.21724321 0.24120623 -0.0245255 0.28748825 0.034137085 0.36293036 0.031779204 0.43847317 0.4101736 0.431664 0.3973722 -0.015938595 -0.08280124 0.5564859 0.47439858 0.032933448 0.0814444 0.5503718 0.5996978 0.582533 0.49545926 0.17219785 -0.27809668 0.06930186 0.07419985 0.5643458 0.33338612 0.33516753 0.29621607 -0.08131692 -0.14302067 -0.19930598 0.17201263 -0.052871972 0.084597945 0.061357766 0.051968336 0.13421226 0.17664671 0.26544628 0.33368352 0.3610075 0.41337797 0.4428464 0.06721777 0.18742846 0.5207776 0.4954837 0.44634432 0.37369567 0.29714257 0.13698328 0.17931452 0.11632337 0.1281032 0.5002078 0.5236148 0.025281519 0.44416487 -0.23862724 0.26201734 -0.40532723 0.226085 -0.05727069 -0.021393873 0.074380994 0.13321087 0.15491927 0.16802067 -0.06942489 0.16289139 0.17933834 0.15131444 0.05348819 0.19161507 0.24375612 0.07744609 0.3852595 0.346487 0.3089165 0.20734558 0.24012408 0.16276887 0.023229841 0.26490074 0.10867633 0.10982208 0.3558492 0.08401797 0.37684304 0.07800002 0.40176722 0.17091346 0.4166277 0.4794848 0.4473595 0.2875386 0.024056327 -0.009758219 0.42770034 0.52291584 0.32136562 0.08018785 0.027689345 0.3243814 -0.06599144 -0.011543263 0.28772834 0.23183203 -0.18482961 -0.103110746 -0.036038313 0.19776376 -0.12845865 0.23908019 0.21361992 0.041090105 0.16281056 0.14281529 0.2878177 0.22328585 0.30290088 0.40233803 0.36103308 0.37616313 0.3592656 0.27843583 0.25519246 0.28906545 0.51852727 0.50541645 0.429542 0.16803557 0.1747509 0.16433173 0.4953518 0.517004 0.22056839 0.47049505 -0.13483185 0.33230454 0.3637707 -0.38953465 0.25885934 -0.3842705 0.16975445 0.19535692 0.079399005 0.21847236 0.14777099 0.29761064 0.35470253 0.21108837 0.42610112 0.4603525 0.46363014 0.37689704 0.04469707 0.15275244 0.21464767 0.15590166 0.26372156 0.28994524 0.33961868 0.36492515 0.35869545 0.115951926 0.37933633 0.38685805 0.22641028 0.46339333 0.27763835 0.16945398 0.057732742 0.069156006 0.18703906 0.2732287 0.06997978 0.14400616 0.2588782 -0.21653223 -0.09897068 -0.010469057 0.34321776 -0.15565132 -0.02290411 0.22553244 0.37422183 0.45306695 0.39670712 0.35711622 -0.0033606458 0.24760064 0.42177022 0.5098137 0.56743145 0.4240957 0.38118696 0.16828132 0.15492073 0.14083938 0.5236782 0.5816766 0.63001084 0.43397456 0.4181161 0.17693472 0.18970641 0.18148208 0.32241723 0.23039663 0.20126712 0.16300592 0.37467116 0.43792892 0.38596657 0.30937564 0.3183631 0.33011925 0.30983913 0.37502146 0.19116056 0.13483867 0.26872143 0.5524817 0.47756618 0.45140105 0.36319333 0.09172003 0.1518764 0.4046492 0.42526186 0.40660685 0.36307022 0.2820018 0.28013098 -0.21658711 -0.14302805 0.18941465 0.14028035 0.21020861 0.032658633 0.07035986 0.43694192 0.41316468 0.42147383 0.573794 0.4906868 0.49093527 0.40280712 0.5149494 0.43960112 0.13898823 0.002460882 0.19701293 -0.45171964 0.1231038 0.20856218 0.09716592 -0.07247019 -0.19775498 -0.3269796 0.20390218 0.19634864 0.024426706 0.30133122 0.09382939 0.36186028 0.3471011 0.37629122 0.07410105 0.3131565 0.35777432 0.088216625 -0.32154542 0.15521519 0.1292381 0.08415912 -0.38911337 0.22592029 0.29363918 -0.43436116 0.19923152 0.25697294 0.21372001 0.21444066 0.42652184 0.47761512 0.4322754 0.46265474 -0.04404222 0.59153116 0.4694634 0.004311938 -0.005855333 0.3882451 0.53571975 0.6450794 0.6719346 0.66453433 0.5014208 0.49652824 0.19074312 0.1735174 0.5951295 0.7012118 0.702858 0.4422639 0.23491047 0.08475341 0.21592139 0.20504984 0.12931369 0.43140465 0.46604177 0.4257003 0.37311915 0.34480566 0.3448336 0.39180917 0.47543162 0.58016825 0.35753635 0.40352386 0.5983441 0.013233189 0.1797915 0.5301418 0.3452759 0.2563007 0.18187179 0.36649606 0.3124274 0.27079946 0.2516019 -0.03841962 0.07503049 -0.21876016 0.34482923 0.41674984 0.43161577 0.24611722 0.018201996 0.3728924 0.4772529 0.5434973 0.4381169 0.29645196 0.5909574 0.65272933 0.473278 0.4177704 0.6395514 0.4766482 0.43249288 0.5412667 0.45413685 0.3674196 0.2739392 -0.06556367 0.39015448 0.4342446 -0.004460465 -0.08786106 -0.20006159 0.056701846 -0.7872052 -0.7536869 0.19019076 0.2002145 -0.33560935 -0.3819766 0.17695466 0.20241234 -0.087492116 0.024274841 -0.25951105 -0.6331012 0.3083496 0.18643488 -0.001574114 -0.21249335 -0.17190278 0.34993958 0.35243025 0.07240798 0.11268392 -0.12065871 -0.10192238 0.2648208 0.092008695 0.004066862 -0.29656637 -0.056289215 -0.0683442 0.22959101 -0.36002153 -0.18740252 0.30066475 0.08245452 -0.18541442 -0.5095954 0.29298595 0.32154417 0.46847862 0.5209191 0.22721167 0.4625319 0.51149356 0.37217984 0.463772 0.49544567 0.5072639 0.53388923 0.5378319 0.684857 0.5317762 0.5332262 0.48415118 0.1917663 0.39468044 0.70833004 0.7011308 0.7004434 0.04419721 0.07348398 0.25800857 0.13356921 0.3042336 0.33484507 0.40147555 0.33336848 0.36249825 0.4493434 0.552268 0.6136887 0.62809736 0