# vtk DataFile Version 2.0
Really cool data
ASCII
DATASET POLYDATA
POINTS 7800 float
28.363398 55.981155 3.7548242
28.300058 56.020496 4.470077
28.324438 56.406788 3.668617
28.21454 56.476017 4.416698
28.3601 56.404827 4.997242
28.31321 57.07343 3.8476593
28.310303 57.16883 4.5591164
28.392933 57.17054 5.1084003
29.211477 55.311096 3.0155451
29.020458 55.181236 3.6337035
29.093954 54.975685 4.3321705
28.916279 55.82192 2.8643088
28.675838 55.592293 3.4823053
28.583754 55.54777 4.500095
28.716944 55.715214 5.106948
29.151834 56.331985 2.3703346
28.721972 56.46373 2.8769448
28.472128 56.346268 3.3556964
28.516594 56.51908 5.398161
28.798973 56.674118 5.950905
29.091446 56.99134 6.8122153
28.849922 57.177334 2.8294811
28.553886 57.344547 3.5486288
28.982857 57.191227 6.549456
29.298725 57.527237 7.2507586
29.09356 57.958206 2.9399831
29.03077 58.531124 3.6605785
28.801321 58.347553 4.6625576
29.143127 58.09485 6.607434
29.306652 58.103333 7.0032578
29.256374 58.876476 3.6461148
29.033722 58.781536 4.2900424
29.19993 58.943916 4.9127836
30.093565 54.39848 3.7898812
30.12569 54.352703 4.323585
29.82209 54.986046 2.9935
29.554447 54.7649 3.723508
29.598505 54.65074 4.390656
29.616808 54.91993 5.1449847
29.672626 55.935917 2.2913058
29.411749 55.585728 2.602553
29.632504 56.090538 6.485789
29.804468 56.292133 7.172678
29.41201 56.50867 2.2087955
29.479788 56.325768 6.6625977
29.682915 56.63737 7.3102055
30.402145 57.056644 13.74079
30.340317 56.898685 14.664777
30.418415 56.89781 15.502122
29.764372 57.117344 2.1959822
29.52748 57.478718 7.5221205
29.914812 57.726185 7.935385
30.398771 57.54647 13.127909
30.305357 57.526848 13.625848
30.271894 57.690216 14.40827
30.40908 57.384052 15.482253
30.172285 58.731544 2.092838
29.588789 58.13745 7.3813705
30.263186 57.935516 8.172024
30.361052 58.20613 13.596094
30.330013 58.033085 14.276469
29.907265 59.526897 2.804685
29.55617 59.239277 5.0706058
29.63634 58.935978 6.2442365
30.298351 60.50202 2.9649973
30.161022 60.378567 3.8688972
30.319935 60.72955 3.41745
30.235048 61.580322 6.569864
30.41438 61.264637 7.4020305
30.218304 62.543873 5.8366604
30.150505 62.67252 6.4217625
30.091925 62.64639 7.157115
30.25478 62.85642 8.486859
30.32922 63.349506 5.9530864
30.206194 63.427162 6.5714154
30.170065 63.259815 7.474012
30.23772 63.518353 8.486527
30.355772 63.37486 8.967658
30.34332 63.75644 6.2824697
30.291935 63.821262 7.695985
30.351015 64.0031 8.460813
31.470964 53.10998 13.431904
30.616098 54.30521 3.7307708
30.440674 54.25894 4.411707
31.41251 53.87281 12.590234
31.390575 53.66392 13.292333
31.381239 53.605404 14.080678
30.451431 54.861565 2.9073927
30.778349 54.450012 3.3135338
30.430256 54.68046 5.50848
31.178942 54.68582 7.644534
31.272242 54.596977 8.085924
31.368444 54.900894 12.400321
31.325232 54.27112 13.457684
31.366047 54.604927 14.420145
30.379086 56.008953 2.117396
30.655312 55.396767 2.5176826
30.98081 55.27101 7.596606
30.713455 55.902725 8.021637
31.370266 55.31786 9.548928
31.231325 56.151978 13.434179
30.906015 56.088314 14.410462
30.955065 56.049183 15.675744
31.104021 56.053486 16.039843
30.697428 56.587532 1.9345133
30.889254 56.75143 8.709309
30.637556 56.9984 13.117914
30.533295 56.990704 13.345835
30.540522 56.54464 14.558331
30.814383 56.696175 16.37529
31.141636 56.754845 16.750917
30.968914 57.599583 0.86686206
30.36567 57.604153 8.388757
31.097515 57.849014 9.083293
30.701836 57.509834 12.887196
30.49827 57.50123 15.837215
30.7317 57.434975 16.312906
31.084352 57.437748 16.731937
31.205608 58.645237 -0.09831682
30.95186 58.59574 0.72755826
30.741621 58.115326 8.605813
30.69554 58.15292 12.988692
30.554333 58.444366 13.607325
30.562881 58.442158 14.323257
30.61506 58.026882 15.446583
31.014685 57.965588 16.360327
31.26237 59.406254 -0.1753484
31.05573 59.483864 0.67092896
30.649485 59.651657 1.5710065
30.533644 58.892 7.772514
31.31628 60.01329 9.240589
31.129684 58.719364 13.118688
30.861805 58.783566 13.641736
30.875206 58.71325 14.391955
31.359459 60.000706 0.12111132
31.24943 60.122658 0.50635225
30.927479 60.439888 1.8887321
30.437214 60.70056 2.9527974
30.593233 60.89553 7.172726
30.545645 60.854168 3.3251774
30.646458 61.919598 5.1365147
30.55002 61.745335 8.098291
31.024849 61.6818 9.175365
30.704494 62.64997 5.137069
30.816526 62.318542 9.376693
31.116293 62.565388 9.719479
30.809011 63.46685 5.2807565
30.613396 63.60756 5.622502
30.530138 63.50735 9.231471
31.0846 63.70949 9.610391
31.107265 63.81827 5.292932
30.835012 63.906094 5.707538
30.683401 64.0998 6.48581
30.606588 64.191475 7.4881477
30.689398 64.31186 8.53386
30.767162 64.14323 9.042028
31.158102 64.59529 7.7712755
30.96995 64.5865 8.377292
32.20467 48.981647 8.900204
32.1671 48.843903 9.619642
32.137177 49.018223 10.377382
32.306316 48.972576 10.823884
32.197002 49.583523 8.205823
31.957966 49.8176 8.654058
31.79647 49.54293 9.51815
31.874723 49.62676 10.385821
32.112404 49.469856 10.962204
31.950638 50.419346 8.726636
31.71569 50.38053 9.444367
31.789547 50.34306 10.23391
32.158768 50.523823 11.2738285
32.300552 50.754272 12.6405525
32.270706 51.045307 13.382906
32.376545 51.171917 13.829387
31.959064 51.044666 8.956539
31.9259 51.69064 12.317201
32.02704 51.620026 13.415129
32.226078 51.8407 14.187986
32.11796 53.196754 7.7091513
32.247402 52.617016 8.506598
32.24894 52.16061 9.351398
32.127876 51.89619 10.147349
31.770952 52.19667 12.650989
31.648603 52.601788 13.567561
31.777952 52.713715 14.306576
32.03114 52.94046 14.841235
31.377087 54.32725 3.5963469
31.314415 54.374382 5.0570498
31.827646 53.798668 7.4546337
31.701082 53.681152 8.475764
31.9553 53.732487 9.499843
31.596182 53.19195 12.522475
31.557604 53.573856 14.660433
31.809732 53.79692 14.97371
31.072624 55.09206 2.6022038
31.72819 54.555668 5.056868
31.475248 54.34129 8.833526
31.645847 54.531776 9.357834
31.84952 54.291275 10.793934
31.79822 54.345398 15.196662
31.242886 55.587887 2.4741101
31.761932 55.20533 11.662411
31.529917 55.145557 12.464884
31.591064 55.52807 15.608387
31.447544 56.082367 16.421034
31.93513 56.0152 16.668056
31.643108 56.75659 9.669412
31.476248 57.01364 12.509339
31.424458 56.675396 16.854834
31.903439 58.07629 -0.75751877
31.657099 57.88377 -0.29550433
31.617233 57.638893 9.357936
31.28127 57.55192 12.425574
31.460438 57.39923 16.8792
31.794735 58.53722 -0.7885082
31.469788 58.61534 -0.46497542
31.727507 58.902847 9.399932
31.2319 58.64045 12.818501
31.29442 58.498917 15.689779
31.536541 58.225548 16.378788
31.827297 59.512295 -0.80129147
31.509119 59.500294 -0.5433796
31.92261 59.51032 9.592667
32.156925 59.148163 9.806614
31.989183 59.18041 12.89526
31.678204 59.08041 13.36762
31.47194 58.957005 14.746601
32.025883 59.26717 15.071403
31.992712 59.983837 -0.72807324
31.754362 60.148113 -0.37963176
31.454578 60.323444 0.36812043
31.56141 60.307182 9.587548
32.457714 60.609684 11.290992
32.43028 60.325043 12.343536
32.39607 61.063194 13.62207
31.936663 60.79101 0.8281579
31.75653 60.975914 1.6031046
31.327398 61.037106 2.4660256
31.626297 61.37016 9.606884
32.294285 61.859783 11.10924
32.213158 61.64208 12.682103
32.24404 61.2697 14.315253
32.36527 61.646915 15.373046
32.2269 61.99743 10.396503
32.388657 62.419144 12.791953
32.3858 62.3285 13.277649
32.39687 62.092583 14.807332
32.396236 62.145016 15.133013
31.490688 63.42513 5.006837
31.414534 64.141945 5.676663
31.504328 64.41235 6.374162
31.400887 64.44592 7.353074
31.373323 64.3029 9.244382
31.172285 63.84616 9.595027
31.72841 64.58324 6.777819
31.564447 64.7156 7.687379
31.458801 64.655106 8.488856
31.560785 64.604095 8.873441
33.298916 45.25945 5.793776
33.319496 45.20777 6.135431
33.17172 46.16719 3.963731
33.09528 45.979134 4.598772
33.041058 45.70103 5.5432615
32.96461 45.724823 6.3859797
33.12891 45.881855 7.1709514
33.28806 46.99445 3.3122723
33.14326 46.6172 3.7139783
32.891518 46.64126 4.501282
32.635967 46.570328 5.870558
32.628735 46.51583 6.5334935
32.97138 46.615597 7.3651676
33.15268 47.035366 8.016415
33.322342 47.179905 3.2606688
33.115433 47.278667 3.6871777
32.877518 47.29972 4.549303
32.812717 47.446213 5.579916
32.72875 47.22213 6.3870583
32.797073 47.265205 7.170127
32.779606 48.319416 10.146964
33.276096 48.15406 5.2958846
33.322613 48.577663 6.5542197
33.163433 47.979534 7.228418
32.419884 48.65091 9.021606
32.55158 48.49886 9.854168
32.437397 48.690125 10.403474
32.606323 48.817932 11.054042
33.20741 49.17923 11.738151
32.750782 49.676445 7.6924734
32.545452 49.38023 11.585824
32.815506 49.802563 12.282939
33.067844 49.766598 13.323813
32.49698 50.631905 8.006714
32.464733 50.529354 12.673467
32.488274 50.735775 13.326728
32.996136 50.746994 14.179177
33.128674 51.407547 7.5145
32.56888 51.680115 14.486085
33.098278 51.761913 15.024275
33.40658 53.084938 -3.158965
32.79647 53.026287 6.919142
32.966526 52.35181 7.398583
33.23317 52.291428 15.470103
33.436405 53.725456 -3.8951902
33.37094 53.607635 -3.5901964
33.389565 53.55192 -2.8868275
32.663208 53.772488 6.5880437
32.518692 53.22739 15.362315
32.9586 53.777325 15.539845
33.43051 54.12521 -3.8583074
33.394917 54.092663 -3.5592315
32.513004 55.187115 15.860774
32.479183 55.90814 2.6223683
32.648746 55.892246 16.720016
32.612103 56.795 0.03755574
32.419918 56.52776 17.018497
32.800293 57.552773 -1.103803
32.672146 57.374264 -0.69408345
33.321857 57.317287 10.882123
32.6178 57.663227 11.911448
32.45109 57.479652 17.02805
33.157833 58.700558 -1.6699108
32.626637 58.297333 -1.3064992
33.03291 58.84924 10.177143
32.88209 58.643223 16.477787
32.805794 59.328716 -1.3011274
32.77321 59.80255 10.647022
32.838993 59.63417 11.874307
32.469173 58.707077 16.441055
32.38048 60.067955 -0.8786527
32.612385 60.500267 -0.50341594
32.605545 60.619534 14.748249
32.644604 60.87948 15.473246
32.689335 60.696 -0.03859058
32.853107 60.951645 0.5300606
32.632988 61.22173 1.4054465
32.42436 61.4002 2.4457357
32.520367 61.636696 15.611137
32.711506 61.463646 15.902967
32.39914 62.481567 4.559929
32.5874 62.5155 13.451659
32.52807 62.447792 14.698615
32.63189 62.366833 15.437678
[...]
POINT_DATA 7800
SCALARS features_00 float 1
LOOKUP_TABLE default
0.67363846 0.64789766 0.6612534 0.635941 0.582947 0.61950946 0.58669215 0.5317447 0.6500437 0.66636693 0.6531882 0.6602409 0.6781814 0.6617918 0.5925611 0.6247233 0.6520007 0.664585 0.52103186 0.4360775 0.3590725 0.6057587 0.5990388 0.37454283 0.3435238 0.491329 0.41947544 0.4688185 0.38438243 0.35674182 0.3616435 0.40132397 0.39231697 0.5940199 0.57884115 0.6132454 0.6281843 0.6114246 0.5862885 0.596174 0.6281462 0.33164844 0.2746699 0.5921403 0.33502296 0.29773474 0.5765117 0.62703776 0.6984864 0.51242554 0.3240719 0.28066665 0.590224 0.6139697 0.65392256 0.7108797 0.27779305 0.3246313 0.22058696 0.61485773 0.6460165 0.25257242 0.347243 0.36480242 0.23435035 0.16840117 0.17491716 0.49993283 0.42488182 0.56531566 0.5799431 0.58313656 0.6227113 0.61215484 0.62846565 0.64087176 0.68242514 0.6727533 0.6400664 0.67607373 0.6947628 0.34673777 0.5650191 0.5603355 0.22288382 0.31567279 0.35984847 0.5784601 0.5575542 0.5054927 0.17373766 0.16543493 0.11555418 0.28018895 0.3087318 0.5336368 0.5477724 0.18879057 0.21031694 0.11559732 0.34837478 0.45238644 0.56418127 0.5661812 0.4439807 0.19536023 0.52455705 0.54143655 0.5657691 0.6888298 0.6719087 0.30173975 0.20418137 0.04575161 0.56069326 0.7241147 0.7300526 0.70767605 0.4741637 0.41479668 0.10628736 0.57729906 0.60191864 0.62061656 0.67482364 0.6934625 0.5169803 0.44578755 0.31845742 0.17694505 -0.03741544 0.5373926 0.5704684 0.58012855 0.519217 0.48396504 0.3497578 0.2380004 0.32769832 0.18029377 0.4630401 0.45690894 0.2785542 0.570796 0.434493 0.43181792 0.6247819 0.6294614 0.6781498 0.66815424 0.6406859 0.6450794 0.65589416 0.67350745 0.69074905 0.6895589 0.6527412 0.67382985 0.4331197 0.4287554 0.37369335 0.32059246 0.36104566 0.43039727 0.45742977 0.38908863 0.31311017 0.3848628 0.4415413 0.41483092 0.2443737 0.19182679 0.23622234 0.25695848 0.32445413 0.21718618 0.27633333 0.30649963 0.14621106 0.12025271 0.1254859 0.18165338 0.27676886 0.3450325 0.36242843 0.35001686 0.49702442 0.49190453 0.16328919 0.12360467 0.01870468 0.26433966 0.35667506 0.32357788 0.51562953 0.4070937 0.11363173 0.074235745 -0.06919924 0.28117162 0.4799176 0.04964754 0.11591925 0.39458007 0.5481087 0.4909459 0.076005585 0.41527396 0.63748074 0.48803315 0.433853 -0.0006553903 0.49631566 0.6707752 0.5166782 0.49791598 -0.07638566 0.5068394 0.60723 0.6390343 0.5694542 0.5480681 -0.12679937 -0.15027705 0.26680708 0.43664467 0.49367666 0.3251223 0.5869757 0.5660608 0.50953335 -0.07901274 -0.1460689 -0.11021219 0.3035934 0.49651134 0.43727392 0.33777806 0.04912652 0.11843854 0.2843493 0.37598318 0.5071297 0.08256741 0.34462857 0.3917513 0.48316818 0.515718 0.6232886 0.64545184 0.6421155 0.634758 0.6443197 0.6658157 0.6186116 0.6160374 0.63028944 0.6174122 0.61730754 0.6113677 0.6760519 0.6573653 0.6277393 0.6102951 0.5679741 0.68720436 0.6910772 0.6887653 0.62928 0.58638346 0.53209144 0.4022665 0.68593323 0.6858531 0.672013 0.5559205 0.5337344 0.48856154 0.31913835 0.41615677 0.26690292 0.35799214 0.39650738 0.37163797 0.3451512 0.27623537 0.1993694 0.14046726 0.23304328 0.1708031 0.19346902 0.21628219 0.1840356 0.21564712 0.25191095 0.029329285 0.29369983 0.27175528 0.70936596 -0.01421538 0.01804237 0.24112223 0.70057714 0.7067057 0.669392 -0.045948304 0.30036014 0.21194324 0.6631458 0.6557835 0.24761245 0.26610756 0.39495793 0.34787452 0.50871074 0.4697283 0.44983733 -0.670555 0.09583152 0.5409172 0.5279727 0.5211595 -0.28780183 0.41826576 0.572488 -0.26860574 -0.334373 0.48899928 0.5978508 0.57554716 0.3078003 0.43637156 0.5389646 0.47577053 0.4332716 0.38526568 0.53777456 0.55274653 0.50407326 0.40277126 0.49523568 0.5650475 0.604156 0.51534426 0.17300549 0.2698478 0.37043762 0.49707457 0.5814822 0.602391 0.5910976 0.5965267 0.42434615 0.46209136 0.5686404 0.53084 0.5132344 0.59545803 0.6030873 0.5958992 0.5682096 0.60047436 0.61022705 0.6195308 0.6216934 0.55184686 0.501225 0.64626026 0.41879523 0.13943844 0.86625063 0.65918285 0.65457284 0.13878478 0.7281395 0.8054316 0.6064256 0.40648106 0.31326443 0.15659225 0.16770771 0.20384839 0.20795949 0.34583616 0.03429365 0.19719057 0.23408568 0.2276642 -0.10549955 0.2546336 0.24187163 0.69262034 0.61513966 -0.10586323 0.21016002 0.7517197 0.73033667 0.6394481 0.5219027 0.28736013 -0.19563729 -0.13290872 0.19686013 0.69632685 0.7168348 0.61465675 0.33038574 0.2949817 0.26146546 0.22577664 -0.36359453 -0.28285557 0.2065381 0.66066515 0.6594536 0.61132276 0.5651362 0.32874453 0.26230285 0.2236882 -0.13347636 -0.33478808 -0.36016315 0.5729477 0.55982524 0.43348902 0.0584571 0.2282524 0.23489983 0.33426967 0.40416607 0.4237385 0.38583413 0.48509848 -0.54138374 0.21388045 0.49455726 0.5334314 0.5394177 0.507946 0.39735055 0.34507823 0.27226883 0.5357226 0.546881 0.5971978 0.55554897 0.478123 0.055145912 0.1579107 0.2289761 0.29404432 0.44653264 0.5582027 0.5839412 0.5166807 0.5168101 0.42856205 0.36188003 0.27917507 0.031735256 0.0911649 0.12352329 0.3237332 0.5043925 0.43570417 0.5101 0.5663388 0.58317816 0.5101263 0.42982686 0.5002849 0.51885563 0.40412933 0.27380133 0.6301964 0.78115237 0.9127786 0.95121276 0.95628655 0.5214157 0.5605303 0.63701653 0.7288715 0.8602668 0.9169803 0.93861544 0.53392255 0.10038685 0.08236945 0.16047211 0.5179455 0.6299667 0.7104101 0.76167107 0.8448361 0.8822411 0.18204212 0.17313497 0.4205831 0.6064373 0.67747456 0.68575 0.77854997 0.12392912 0.20944971 0.5882401 0.37204456 0.45377964 0.6558171 0.66092193 0.5377824 0.42472243 0.22240862 0.13809946 0.38912743 0.46299073 0.5425134 0.46707633 0.6625638 0.7157397 0.3081437 0.25667652 0.25295857 0.049863636 -0.2932195 0.3784277 0.49868155 0.56850123 0.4681786 0.683591 0.15558773 -0.37559283 -0.020854868 0.45035458 0.53151053 0.5425898 0.4895574 0.6387776 0.6166184 0.51283604 0.56714463 0.12914324 0.18448597 0.37220305 0.14960042 0.43687302 0.4362784 0.46857855 0.4321139 -0.070220396 0.39214525 0.2944753 0.22912306 0.20344402 0.3709888 0.40082768 0.53235495 0.50332224 0.38763893 0.4953151 0.5065412 0.41802293 0.3695602 0.09531284 0.021026254 0.018566323 0.10894225 0.24219915 0.3564191 0.43644172 0.40043253 0.39274007 0.42001253 0.4999339 0.4182183 0.36150697 0.7223262 0.83934903 0.8985445 0.3435462 0.3531455 0.26159814 0.23878509 0.22995588 0.54223514 0.5805007 0.696009 0.9440882 0.9534965 0.33072892 0.2903473 0.060792044 0.018236388 0.49282315 0.9515935 0.38691384 0.095660895 0.13461371 0.1400676 0.3863563 0.43541616 0.90086013 0.14830282 0.13597625 0.21377113 0.4270455 0.7497233 0.8133925 0.35659346 0.10873046 0.119793415 -0.016740175 0.14485495 0.17598553 0.06693335 0.17619355 0.56682754 0.6405539 0.32964733 -0.25727513 -0.34224743 0.07617385 0.26382384 0.27748373 0.2570911 0.25175697 0.19176205 0.4845751 0.5436593 0.4337064 0.29783368 0.21433698 0.13182649 0.14735961 0.19721524 -0.46188766 -0.39933884 0.06028857 -0.058797866 0.24863265 0.26772174 0.2573508 0.21743396 0.29956856 0.24685332 0.12628299 0.53896165 0.58128273 0.17722496 0.0022874288 -0.13693866 0.16912065 0.15163644 0.14637214 0.33508706 0.38334382 0.27290165 0.56613 -0.33512414 -0.084974855 -0.1695989 0.07688743 0.16535799 0.31389868 0.42081767 0.30977875 0.48823595 0.5299449 -0.295707 -0.054763313 0.32465068 0.3988121 0.4387762 0.3569255 0.4671815 0.47998843 -0.07179329 -0.015821185 -0.027540296 -0.00026202574 -0.022023004 0.0053492 0.11071193 0.31253093 0.4670464 0.59546536 -0.054399595 0.34842426 0.41966653 0.60112983 0.63227546 0.36586472 0.22162035 -0.115959205 0.5918622 0.6476543 0.6499344 0.6337043 0.39487988 0.27858067 0.15900254 -0.038751215 -0.10992533 0.599631 0.61925435 0.62764287 0.62530375 -0.17422993 0.08104295 0.040202588 0.28859684 -0.15524442 0.24619725 0.38283795 0.14688459 0.059987523 0.04285061 0.0022597164 0.2039544 0.2940816 0.36700138 0.40831253 0.38203543 0.27575576 0.56314003 0.6627444 0.7714069 0.8442344 0.308298 0.2238295 0.1672268 0.18732166 0.1791892 0.07710807 0.4569797 0.49443436 0.5998702 0.8569734 0.88923955 0.44622076 0.42053127 0.30405012 0.05451282 0.089754194 0.15822653 0.19638723 0.22069216 0.3834741 0.44032526 0.9319607 0.42919028 0.1781115 0.16558933 0.1915637 0.30674052 0.87774885 0.41727215 0.119510844 0.06207767 -0.013897862 0.01168254 0.7312262 0.8104389 0.26379824 -0.068009034 0.15260284 0.1143533 0.092017226 0.013776835 0.034491565 0.42264777 0.36777055 0.3183048 -0.23639947 -0.15346345 0.21778962 0.23362431 0.45332283 0.41022706 0.4271767 0.009098217 0.22293717 -0.004723385 0.48251897 0.16588424 0.3770137 0.518525 0.45824304 0.47765833 -0.24887556 -0.11151684 -0.023750614 0.1952692 0.271274 0.5034354 0.55856967 0.43568736 0.4648531 -0.33148286 -0.097168 -0.072051585 -0.008746597 0.3237704 0.20303 0.2685257 0.44606572 0.40306383 -0.2319438 -0.32386622 -0.07105543 -0.05072537 0.28238344 0.19246763 0.2662233 -0.1752392 -0.0004260484 0.0009680949 -0.047216512 -0.31899422 -0.02073196 0.015075676 0.49709356 0.4731235 -0.2500044 -0.057134688 0.1424587 0.5476168 0.21064448 -0.07785421 -0.18229654 0.5970558 -0.12597358 -0.17966771 -0.16384012 -0.16715612 0.5932715 0.58276474 0.022972418 0.10243781 0.49588668 0.5238167 0.550205 0.13804202 0.15494806 0.1095185 0.0038421303 0.05178173 -0.0417773 -0.035569564 0.0064923614 0.24624743 0.19120643 -0.040082023 0.29138282 0.3458675 0.29689765 0.28285652 0.35081926 0.37449023 0.34266853 0.27175242 0.6208445 0.70040834 0.7655977 0.47991508 0.41556343 0.2560455 0.18097639 0.17437796 0.18594177 0.16144705 0.10525269 0.17038167 0.21764955 0.24700256 0.2247639 0.35234708 0.3641129 0.4760455 0.5683084 0.7632183 0.84416986 0.4970072 0.46902692 0.101460285 0.12684181 0.22146481 0.24438214 0.22412711 0.16686448 0.20307992 0.3019238 0.8415337 0.46670344 0.1226695 0.12574984 0.8213544 0.4001016 0.016610693 -0.056791272 -0.0803001 -0.042161345 -0.073783904 -0.029574897 0.629025 0.11734226 -0.016310543 0.057850376 0.021022625 0.32794905 0.29868838 0.25936374 0.14113286 -0.26122388 0.108104594 0.34890503 0.34670684 0.3822868 0.4519121 0.5895163 0.73382896 0.32069537 0.62616694 0.7276008 0.26548558 0.1790759 0.2891171 0.43161502 0.5976536 0.7190713 0.26318198 0.014188185 0.06399889 0.18018404 0.20856014 0.5432886 0.37554923 0.35017747 0.3772633 0.3107214 0.28526333 -0.000668861 -0.07654513 -0.23839661 0.4620338 0.42181414 -0.24966235 -0.3410408 -0.14865176 0.4161275 0.5231075 0.024855413 0.13585079 0.31442294 0.32528007 0.34392864 0.33091924 0.39900073 0.46957642 0.48353544 0.06586032 0.08628629 0.21108717 0.3557554 0.389154 0.3876635 0.15308101 0.15641874 0.14364442 0.39552772 0.41026816 0.15228155 0.151163 0.11947122 0.08850232 2.901256e-05 -0.07520571 -0.13355683 0.3073311 0.24401517 -0.08709323 -0.05574663 0.08714993 0.33063674 0.4369402 0.43343437 0.3758475 0.42782673 0.47084436 0.49521565 0.44639248 0.31900454 0.3101543 0.30295664 0.20757553 0.5347227 0.5322064 0.47604197 0.33910635 0.25259572 0.23538893 0.14172196 0.2202436 0.25959966 0.23591234 0.14767987 0.14419383 0.19961628 0.22376318 0.2050539 0.17049758 0.11684089 0.4240178 0.5416571 0.67827535 0.5357432 0.15580046 0.10188374 0.1634918 0.12197634 0.6822381 0.76714295 0.41302425 0.51233333 0.046933282 -0.16432014 -0.17916127 -0.14976081 0.08781895 0.3806364 -0.13360627 0.5803978 0.08082602 0.2478792 0.17253047 0.11897218 0.22677822 0.38155374 0.30862254 0.744671 0.7509912 0.7266401 0.6580783 0.72681355 0.049050108 0.071314946 0.14312007 0.14303622 0.54317874 0.46286562 0.31409627 -0.023814142 0.03362155 0.48605078 0.47708178 0.3853464 0.18775515 -0.05930731 0.30968 0.24228297 0.34798795 0.2634248 -0.15774229 -0.32302326 -0.38172778 0.33133432 0.46789122 0.3682734 0.3094781 -0.11409691 -0.2569486 0.3651139 0.5520797 0.5126714 0.27743986 -0.031555843 0.2352711 0.34227353 0.36765677 0.5797844 0.5638955 0.5045294 0.060908686 0.08140692 0.3287047 0.23711833 0.3132524 0.107644804 0.124586105 0.29138246 0.4050515 0.4147758 0.39736938 0.13639611 0.12463729 -0.059158564 0.02963699 -0.03602447 -0.11252276 -0.09256302 -0.032151625 0.38603705 0.33518755 0.27141857 0.4051465 0.49558353 0.5022513 0.4616229 0.45714235 0.50033414 0.5061956 0.29526284 0.24737278 0.18456006 0.25188816 0.25304857 0.18333207 0.1983116 0.54220974 0.46528268 0.29760748 0.21434978 0.2551308 0.26081327 0.24332437 0.16657577 0.22183314 0.26671398 0.23253046 0.15373036 -0.0041175634 0.005823076 0.15570271 0.0967174 0.0982295 0.17708611 0.13956258 -0.15616359 -0.005726449 0.41505495 0.5615676 0.5514708 -0.12788782 -0.027639125 0.076694906 0.51297325 -0.13953617 -0.08937953 0.08256549 0.14754745 0.13976003 0.1467742 0.08533106 0.08459507 0.08275075 0.09846497 0.601415 0.62159705 0.12540092 0.67363334 0.6695907 0.032310262 0.68969023 0.041035496 0.6785638 0.6542754 0.2092188 0.14967859 0.5849736 0.62786806 0.47700992 0.09827422 0.13046926 0.55326116 0.5420836 0.30324727 0.5830399 0.53938377 0.4235853 0.046023723 0.14908461 0.52311826 0.42976862 0.25460184 -0.018414684 0.1985263 0.117142335 0.46642882 0.4000584 0.19653733 0.5390115 0.557606 -0.1912695 0.2493253 0.26042813 0.5920477 0.6040773 0.5884804 0.553135 0.40702832 0.030075867 0.25506347 0.2601947 0.24800177 0.6280354 0.6193477 0.57034546 -0.01015144 0.03611669 0.118749775 0.29962206 0.38212693 0.36663383 -0.029521184 0.017296478 0.26507056 0.09200282 0.09421505 -0.08665494 0.34802943 0.25108224 0.14372858 0.08665843 0.056899194 0.16512294 0.35567623 0.47558725 0.4381055 0.40466794 0.47295797 0.48970735 0.3640823 0.3200005 0.22545531 0.28965273 0.33401662 0.33330816 0.27268785 0.19454157 0.1646584 0.14502448 0.13734186 0.059982304 0.09364342 0.13051236 0.13251129 0.08221121 0.2626093 0.28820425 0.27455685 0.18982089 0.22130305 0.22654209 0.075501174 -0.006868139 -0.05648133 -0.040908873 0.080441326 -0.10352161 -0.06299701 0.44987607 0.3136782 0.27050656 0.19994184 0.13607454 0.1768977 0.15285112 -0.14052802 -0.08047186 0.300064 -0.08786868 0.24853045 -0.122367024 -0.12310968 0.25715205 0.26335692 0.00012426078 -0.024337873 -0.015738435 0.025267377 0.03461629 0.505013 0.593999 0.6365396 0.021528695 0.5885571 0.63751924 -0.0031657312 0.31178588 0.62114716 0.22011706 0.4675362 0.27014232 0.5269759 0.446568 0.37115753 0.5892397 0.30428824 0.40475714 0.4792617 0.5392255 0.08221921 0.115566656 0.3162033 0.44670185 0.48820207 0.24141476 0.15673491 0.08174129 0.51126766 0.2145674 0.175656 0.57308006 0.6094784 0.20666791 0.563553 0.6127064 0.5972363 0.46931446 0.2931564 -0.0636327 -0.018786764 0.03935358 0.29472002 0.26128185 0.06813166 0.029003512 0.063291654 0.079250045 0.06914229 0.05336628 0.13648549 0.14180735 0.107368484 0.08817069 0.07951712 0.07632276 -0.010336503 0.14316931 0.3779773 0.12607017 0.08297517 0.09015284 0.09118977 0.1935681 0.38108373 0.3944086 0.35758388 0.3278216 0.28912485 0.25778773 0.33720297 0.36767474 0.34371805 0.2490159 0.243592 0.3237737 0.10411834 0.105543554 0.08517355 0.090628505 0.21719524 0.2519574 0.063695796 0.11958283 0.18121989 0.20877193 0.29019597 -0.08435073 -0.14344722 0.10219301 0.24437714 0.2443128 0.26594013 0.30672145 0.2820431 0.18531924 -0.00381127 0.022735469 0.030456267 0.1285995 0.16428109 0.11824247 0.022984192 -0.094969034 0.052502282 -0.009759641 0.048094913 0.06943744 -0.04370141 0.013169199 0.33277202 0.2450933 0.30231282 0.28407165 0.27653873 -0.03476109 -0.18638223 0.16314445 0.13373165 0.11863966 0.36457533 0.2061171 0.14430887 0.45797366 0.033952307 0.42743215 0.19685927 0.1102377 0.44648638 0.22739293 0.49284983 0.36025754 0.39087233 0.54750085 0.5383922 0.48862383 0.45565248 0.48967445 0.30916333 0.10815687 0.45788532 0.50195307 0.32730857 0.113805816 -0.06828238 -0.021483641 -0.0018485226 0.17130677 0.36766237 0.42355925 0.4405192 0.49245405 0.103960216 0.16435274 0.1486718 0.51395565 0.53652894 0.5511811 0.34044516 -0.24528351 0.20912349 0.48614344 0.3612709 -0.01723038 -0.29008695 -0.24394584 -0.16258071 0.04767461 0.04777738 0.1351919 0.013674147 0.121046916 0.12522611 0.107041486 0.07496424 0.09519969 0.0837287 0.059177563 0.01354602 0.09332803 0.12672448 0.28917527 0.3251045 0.30640388 0.25612932 0.24226524 0.2914161 0.17733671 0.023087455 0.122790776 0.23849261 0.1709523 0.033121463 0.05354529 0.090724275 0.28290805 0.27077785 0.0540742 0.26133618 0.21381454 0.18679315 0.118450336 -0.0154392235 -0.19470641 -0.093219474 0.13687515 0.118406236 0.058506683 0.19626425 0.45448506 0.5221243 0.23050866 0.14676026 0.0416331 0.095518485 0.21594763 0.4004483 0.46332163 0.53140676 -0.10908337 0.123485655 -0.107504316 -0.1029196 -0.17775786 0.023626298 0.22426598 0.28416026 0.31870663 0.3393306 0.38669094 0.031703196 -0.18433377 -0.18406558 -0.14923336 -0.14394136 0.26623505 0.28484756 0.25119117 -0.2617464 -0.012200221 -0.04273561 -0.2471051 0.24639526 0.21117714 0.21720824 0.20034057 -0.02008864 0.1890466 -0.30519986 0.08883043 0.123978704 -0.0032831281 0.26285204 0.14870894 0.32637492 0.48555022 0.3992232 0.11191544 0.4744234 -0.0013252944 -0.3067239 0.030576762 0.22660556 0.31191093 0.41905236 0.3121605 -0.0064129867 0.052710366 0.41936713 0.10687716 0.47116062 0.47993344 0.4132685 0.32631838 0.10973762 -0.116355225 -0.28636494 -0.19402112 -0.090515435 0.03780374 -0.017124884 -0.0037198216 0.11430493 0.013846621 0.19484214 0.24719252 0.18499038 0.15199338 0.12070908 0.09200638 0.089092344 0.059746172 0.02889403 0.010110744 0.01616652 0.109246604 0.24507982 0.26080918 0.2252118 0.2001403 0.16192833 0.09094892 0.15140942 0.23785551 0.22319254 0.16507342 0.12256786 0.19163068 0.263323 0.20296264 0.05387108 0.11647485 0.13851124 0.03254655 0.06559174 0.12506 0.1694408 0.1952835 0.021928646 0.2305522 0.2149992 0.18487445 0.12164651 0.014289807 0.22419864 0.1609942 0.22307867 0.19806999 -0.19362015 0.19407597 0.16927926 0.18709832 0.2021178 0.2427528 0.46110633 0.53718925 0.5847988 0.58939767 0.07759866 0.25602975 0.31485122 0.32725888 0.41588968 0.5695089 -0.1155134 -0.18105046 -0.15532476 0.32178894 0.18942046 0.27541602 0.5499186 -0.17894503 -0.1402252 -0.14985007 0.31519276 0.20271161 -0.29726535 -0.2715534 -0.22366738 0.2810254 0.17400715 -0.25990272 -0.33215418 0.08847981 0.045681357 0.20037697 -0.1386239 0.18958713 -0.21389598 0.12212633 0.15928435 0.3709355 0.0066812895 0.48324138 0.1958343 0.36961147 0.20430054 0.22802329 0.29571688 0.28603432 0.3415164 -0.12763491 -0.10749483 -0.25643358 0.068877414 0.20500277 0.3279823 0.3547414 -0.3915832 -0.22424433 -0.29733136 0.31288293 -0.13350035 -0.13315511 0.40899128 0.2993723 0.2998147 0.012408903 -0.05097336 -0.14278436 -0.19746988 0.07732391 0.0844251 -0.03051548 -0.23765218 -0.11931052 0.085332334 0.108852305 0.17430629 0.032090936 0.20510268 0.21606413 0.18488136 -0.0048441887 0.008951962 0.24020681 0.21208559 0.25604564 0.12701374 0.011280641 0.0032172576 0.0779656 0.17327803 0.24090128 0.2682934 0.35175717 0.25141084 0.24341877 0.052034386 0.122500986 0.2118139 0.6467656 0.6634793 0.653659 0.6220904 0.052885067 0.0888139 0.12383274 0.2043672 0.18649726 0.15975404 0.6409944 0.67375743 0.6281511 0.56479895 0.5357994 -0.09314309 0.12406121 0.07477196 0.1368609 0.121903196 0.11061664 0.57333446 0.59823596 0.5813774 0.525593 0.48718417 0.032248512 0.080503315 0.12734754 0.5248798 0.50962627 0.48596817 0.46265373 0.43026102 -0.19008592 0.16630113 0.58562887 0.5552381 0.50457585 0.31843236 0.38208026 0.38569036 0.30422118 0.2969193 0.38478494 0.21455844 0.1808418 0.03318447 -0.26128873 0.11710962 0.13345732 0.55901253 0.5348021 0.4914868 0.2830624 0.27537417 0.2995792 0.23344521 0.32806948 0.39051804 0.21488905 0.21049258 0.17492275 0.21960366 0.5052224 0.4167961 0.100898765 0.23957217 0.34986594 0.37882146 0.42888504 0.15987223 0.25311363 0.2733691 0.26146978 0.38635135 0.5344555 0.54908335 0.37904364 -0.061290644 0.30439585 0.059647523 0.5429482 0.02844043 0.011559337 -0.058885984 -0.48276535 -0.1421033 0.3358044 0.13227624 -0.17936805 -0.48790258 0.2980877 0.13369021 0.092624515 -0.32650983 -0.17837289 -0.23412299 0.16478951 0.097431034 -0.483974 -0.1784309 0.16629517 0.08632423 0.27650335 0.34290725 0.40298343 0.122155994 0.44328764 0.5166023 0.5199357 0.5235448 0.55263305 0.55061924 0.48117584 0.51983035