# vtk DataFile Version 2.0
Really cool data
ASCII
DATASET POLYDATA
POINTS 7853 float
28.32439 56.08387 3.0844994
28.292847 55.8662 3.5886116
28.24876 55.88955 4.2746873
28.369844 56.582703 3.0611386
28.181126 56.471893 3.6064425
28.165192 56.427258 4.378094
28.260931 56.521145 4.8528447
28.284702 57.261433 3.5662022
28.261755 57.199142 4.4274516
28.332148 57.00185 4.9813275
29.129007 55.18215 2.8771257
29.009874 55.00229 3.4717948
28.858883 55.11462 4.232386
29.181108 55.25536 5.034338
29.093956 56.042236 2.169697
28.86628 55.642147 2.7073364
28.527916 55.44148 3.5841994
28.516102 55.544445 4.4691873
28.803242 55.75057 5.144569
29.117714 56.117924 5.9157295
29.074005 56.48836 2.1537027
28.61995 56.53685 2.5987382
28.562725 56.385128 5.321931
29.084892 56.756207 6.4086876
29.252249 56.935658 6.998
28.720177 57.10179 2.5765195
28.559607 57.503735 3.2686236
28.569763 57.6717 4.7442703
28.717802 57.45938 5.584991
28.939268 57.416027 6.309868
29.16482 57.23603 6.9059157
29.159176 58.374603 2.8910787
28.85406 58.36016 3.656565
28.798254 58.359066 4.5186663
28.777342 57.968758 5.2693973
29.094515 58.14778 6.230185
29.295929 59.132236 3.3731394
29.255507 59.24642 4.4228897
29.098663 58.921047 5.012791
30.042324 54.335556 3.762802
30.034994 54.310028 4.353659
29.56089 54.931538 2.8212273
29.613657 54.660713 3.2610104
29.756458 54.440914 4.2859893
29.515135 54.991222 5.052948
30.337164 55.158737 14.240852
29.500284 55.844006 2.078861
29.290201 55.45432 2.468201
29.519985 56.10089 6.639249
30.001997 56.201626 7.2040405
30.243452 56.028168 13.220063
30.012249 55.78096 13.709074
29.95904 55.816746 14.425287
30.116299 55.839203 14.903385
29.257133 56.591217 1.9732674
29.394655 56.300552 6.600558
29.717958 56.645763 7.256408
29.859997 56.436092 13.802462
29.801302 56.48767 14.449453
30.127468 56.541065 15.22756
29.711569 57.82505 2.094852
29.649218 57.66071 7.4700036
30.065006 57.477016 7.7482686
30.158674 57.11333 13.699436
29.98034 57.246418 14.4781
30.257082 57.334316 15.315439
30.159714 58.378204 1.8730478
29.55297 58.276573 2.4794292
29.400469 58.236515 6.793081
29.585331 58.23253 7.2009993
30.34839 57.690704 14.40477
30.380445 57.880535 15.384221
30.08199 59.25311 2.1040921
29.628101 59.033215 2.5819833
29.564695 59.535004 4.4598675
30.168667 60.28808 2.6555233
29.73815 59.848534 3.906136
29.907185 59.941174 4.162388
30.073479 61.67229 6.151829
30.066566 62.033596 8.294441
30.365671 62.539032 5.055139
30.048409 62.40912 5.833397
29.996851 62.466656 6.6086297
29.996101 62.52921 7.434599
30.053013 62.599697 8.333102
30.247255 62.422775 8.8573
30.264502 63.387188 5.8112
30.103512 63.23993 6.3967223
30.151827 63.278603 7.4077463
30.219902 63.21501 8.357463
30.316395 63.00557 8.845379
30.341238 63.801926 6.054452
31.301445 53.110966 13.565079
30.330608 54.36111 3.1408136
30.63586 54.16257 3.8685064
30.729174 54.12357 4.2100983
31.441044 53.603226 11.968491
31.208593 53.832222 12.577858
30.93843 54.13599 13.4236765
31.074572 53.69903 13.971035
30.133064 55.215496 2.3618293
30.5269 54.74765 2.6683278
30.928995 54.57381 5.6833973
30.654222 54.98644 5.8325496
31.154325 54.742775 7.0498238
31.227932 54.477028 8.192201
31.386395 54.308422 11.656244
30.899479 54.60732 12.928504
30.714508 54.69402 13.589192
30.609577 54.865482 14.446293
31.09875 54.79745 15.044443
30.483927 55.90192 1.9315732
30.80236 55.50715 8.159287
31.016506 55.499466 8.959339
30.749304 55.60533 12.854899
30.372498 55.32644 14.755836
30.497292 55.80546 15.346606
31.064001 55.995197 15.942159
30.566534 56.61215 1.5935813
30.850355 56.38748 8.639365
30.41305 56.660152 13.073412
30.44614 56.457447 15.589591
30.778847 56.77813 16.066368
31.227108 57.71016 0.10353007
30.253422 57.136387 1.7785896
30.642908 57.524868 8.486877
30.894892 57.153843 8.728066
30.970432 57.15617 13.035204
30.450686 57.379456 13.585193
30.485882 57.696857 15.636657
30.76605 57.54711 16.144577
31.308048 58.749107 -0.7097961
31.274212 58.665443 -0.60704064
30.959997 58.232155 0.25418732
30.608532 58.743275 7.9309793
31.21617 58.872772 8.728511
31.050583 58.13315 14.160966
30.70767 58.172993 14.658417
30.671312 58.250065 15.484522
30.998354 58.184887 16.247107
31.296318 59.28707 -0.7063644
31.133802 59.27864 -0.33291924
31.020021 58.671734 15.61734
31.076248 58.67488 15.942843
31.257906 59.934574 -0.18816522
31.271727 60.208073 0.18195175
30.810944 60.45568 1.7304384
30.533485 60.6136 7.4061985
30.772528 61.073036 8.729541
31.066423 60.245598 8.729521
30.722141 60.871597 2.786004
30.515198 61.022358 3.2234929
30.739767 61.2366 4.51015
30.457014 61.715034 5.3253083
30.447058 61.44803 8.330535
30.846535 61.74691 9.22764
30.582657 62.45071 4.8450236
30.705858 62.43361 9.352714
30.712688 63.431343 5.1437373
30.502773 63.528122 5.4476786
30.452662 63.461746 8.560847
30.632244 63.197945 9.087565
30.940308 63.747334 5.2388697
30.780598 63.940414 5.6831694
30.794346 64.105705 6.434763
30.677073 63.975887 7.5350266
30.759392 63.879517 8.34915
31.011538 63.791492 8.944704
32.084213 48.934364 8.670438
31.9998 48.948704 9.505107
32.197163 48.73344 10.23466
32.09964 49.828197 8.015205
31.7726 49.707367 8.8083
31.69463 49.613598 9.471788
31.90372 49.5062 10.338329
32.147633 49.6568 10.993747
32.13555 50.42112 7.9559603
31.758038 50.31467 8.762592
31.665457 50.435642 9.56031
31.794174 50.482075 10.191312
32.003662 51.095314 11.556178
32.235054 50.700783 12.362995
32.3587 51.071796 13.548817
31.898693 51.347816 9.512999
31.838663 51.149086 10.386211
31.922186 51.977478 11.5558
31.86244 51.32542 12.7378435
31.927101 51.665916 13.282665
32.09986 52.639507 7.6752806
31.99537 52.72681 8.218507
31.503237 52.520584 12.7150755
31.637947 52.530464 13.718299
31.717695 52.79285 14.284103
31.976706 53.01335 14.807397
31.230322 54.125942 3.6930163
31.43901 54.365414 4.786976
31.741566 53.587326 7.5598383
31.661524 53.898167 8.476295
32.22646 53.363598 9.2791815
31.927412 53.937862 10.743561
31.56339 53.645226 11.623158
31.428493 53.518555 14.493894
31.86728 53.525555 14.930801
31.604057 54.45663 3.111257
31.3822 54.437714 6.4127903
31.857868 54.54571 10.264912
31.548544 54.83345 11.230177
31.530708 54.70045 15.362963
31.599092 55.23519 15.654332
31.348305 55.565723 2.0911245
31.43211 55.500942 9.392746
31.699596 55.737606 11.365466
31.36694 55.424797 15.559453
31.634628 55.75744 16.04317
32.16708 56.85292 -0.11993094
31.49188 56.315033 9.321185
32.311275 56.22785 10.712861
31.639708 56.689175 12.548654
31.375278 56.678196 16.440004
31.669174 56.673027 16.604773
32.06764 57.80469 -0.9530887
31.649405 57.639957 -0.49878532
31.61029 57.37681 9.130921
31.298399 57.373867 16.561016
31.470911 57.566936 16.677568
31.79113 58.45364 -0.9794401
31.47632 58.269566 -0.66511154
31.457178 58.14336 13.608914
31.487713 58.007 16.660368
31.862797 59.47674 -1.1122482
31.409061 59.67134 -0.6397077
31.58251 59.739124 9.152365
32.00718 58.912296 14.119432
31.476315 58.973854 15.544262
31.765043 58.743374 16.363642
31.87077 59.988987 -0.88866055
31.749645 60.271458 -0.39922422
31.695879 60.556103 0.14576443
31.516792 60.563698 9.3478
32.394646 60.75716 11.895944
32.03 60.652184 -0.208864
32.025158 60.86304 0.77932495
31.615433 60.97871 1.6637173
31.398981 61.28232 2.810754
31.60377 62.0091 9.952107
32.32091 61.739475 11.480134
32.223255 61.58961 12.599734
32.14059 61.448456 13.029666
32.1808 61.58248 14.280333
32.36482 61.791348 15.235368
31.933418 62.395023 4.158972
31.402163 62.560074 4.474474
32.177002 62.030914 11.621479
32.328934 62.29147 12.661504
32.31099 62.36263 13.58515
32.295963 62.310272 14.733805
32.339794 62.253956 15.070695
31.816116 62.862534 4.395837
31.570095 63.56964 4.895521
31.414698 63.61606 9.361108
31.52307 63.842365 5.1106944
31.468197 64.22146 5.794859
31.391937 64.38155 6.6287637
31.445158 64.35815 7.4605274
31.523582 64.25772 8.291881
31.592518 63.974964 9.081172
31.711557 64.54275 7.360767
33.278698 45.20716 5.699797
33.228413 45.28079 6.3276076
33.16488 46.102604 3.8504295
33.047962 45.81823 4.7935386
32.844784 45.759026 5.6183295
32.884888 45.726227 6.272247
33.15317 45.898758 7.118621
33.269093 46.54662 3.2138257
32.99906 46.555027 3.7601573
32.810818 46.43878 4.5912204
32.651024 46.471252 5.5879846
32.616444 46.306053 6.3965955
32.961678 46.580635 7.100679
33.263477 47.110405 3.1030433
33.12189 47.264576 3.4929476
32.894794 47.347645 4.656867
32.74842 47.191208 5.5175004
32.670235 47.164623 6.4339185
32.939014 47.269096 6.9794283
33.014008 48.04088 9.50617
32.73456 48.319828 10.07132
33.258614 47.78694 3.8383675
33.180283 47.86464 4.2854433
33.17587 47.896553 5.8246155
33.18373 48.529644 6.550902
32.75744 48.31342 8.318135
32.622665 48.488018 10.670575
32.700607 48.704075 10.990271
33.27207 48.935867 11.967946
33.29816 49.190193 6.513676
32.52893 49.190224 7.81947
32.777992 50.0406 12.553905
33.21568 49.66413 13.440392
33.190987 50.11134 13.922792
33.27953 50.561752 7.014974
32.44827 50.721874 7.8486
32.771366 50.44398 13.346483
33.004665 50.86469 14.238152
32.594955 51.4508 7.4088583
32.545364 51.716927 14.364959
33.045685 51.938423 14.921076
33.400127 53.098766 -3.6877034
32.73906 52.75741 6.7309346
32.34691 52.426487 14.650274
32.713898 52.7413 15.017092
33.425568 53.57969 -4.108081
33.364067 53.477024 -3.7903273
32.45877 53.659695 15.151949
33.378044 53.996883 -3.6861298
33.48581 54.92411 -0.45950025
32.914917 55.0741 3.6234934
32.956825 55.46769 2.3438053
33.002678 55.89691 16.678326
33.276127 56.916607 -1.4271543
32.57448 56.699078 0.19098528
32.769062 56.519344 16.79099
32.623642 57.281864 -1.1092637
33.00396 57.01527 10.030532
33.123363 56.625423 11.840606
33.20445 57.64536 12.771022
32.728706 57.2301 16.9137
32.77111 58.695103 -1.6389081
32.386055 58.85171 -1.460213
32.984818 58.092762 9.7371025
33.43213 58.468056 11.808483
32.982033 58.59984 12.926717
32.206135 58.59713 16.569729
32.358486 58.344036 16.6512
32.943226 59.223495 -1.6003525
32.517128 59.593487 -1.335524
32.84187 59.561226 10.275818
32.936047 59.650574 11.72824
32.589684 60.271603 -0.908268
32.379166 60.505672 -0.5535072
[...]
POINT_DATA 7853
SCALARS features_00 float 1
LOOKUP_TABLE default
0.6879258 0.7027993 0.67170125 0.6662506 0.6832384 0.63708055 0.5648738 0.61502796 0.57081866 0.5181672 0.65847176 0.67369586 0.6657746 0.5389179 0.6214479 0.66369927 0.6998185 0.6546726 0.5362421 0.42360556 0.5998352 0.64022744 0.49908477 0.38843673 0.34443226 0.5879017 0.5762723 0.49010432 0.4370999 0.39641315 0.35782877 0.44787014 0.46834445 0.45275062 0.430399 0.38672492 0.3921554 0.39439893 0.39156535 0.5784366 0.52312 0.6342298 0.63222677 0.5634694 0.5044764 0.51990265 0.6011846 0.636335 0.33101234 0.27408585 0.6366744 0.6505321 0.6489438 0.6049654 0.57438576 0.351067 0.29773223 0.7515949 0.7593789 0.6865594 0.44117504 0.30079687 0.24522406 0.7132693 0.7587662 0.71819705 0.32516468 0.43381727 0.35208595 0.31672218 0.7003261 0.70075643 0.3203516 0.37851518 0.34386742 0.291723 0.30511963 0.257802 0.5101596 0.51769674 0.56071806 0.5640006 0.59578 0.6022954 0.5758222 0.52833486 0.6389573 0.6413661 0.6443826 0.6079215 0.58183867 0.6718685 0.30273074 0.5721731 0.50792474 0.4703825 0.16069973 0.22944771 0.3343607 0.32792088 0.5912157 0.5705825 0.29389933 0.283294 0.10443656 0.10799963 0.15357348 0.32434165 0.422788 0.4474967 0.38249767 0.5462711 0.18770343 0.12449053 0.46342283 0.511885 0.54148453 0.5130986 0.4475447 0.14928527 0.6357201 0.6246978 0.6177647 0.31088543 0.44465727 0.132085 0.12387601 0.49431413 0.6452185 0.6932437 0.6631889 0.50970745 0.49430063 0.36276144 0.10319491 -0.0023458041 0.58335024 0.64885557 0.6759407 0.66244185 0.55294997 0.52551377 0.6457832 0.6525845 0.5456847 0.5115203 0.3238126 0.2933549 0.29895878 0.11247785 0.22357658 0.14173573 0.18271229 0.44404846 0.40821117 0.3712007 0.54699355 0.49343717 0.6283885 0.6421694 0.6061952 0.5785574 0.6412358 0.66969466 0.68372655 0.6466017 0.6067329 0.5848032 0.45692754 0.47113726 0.40848902 0.29323536 0.44566298 0.47213584 0.4174836 0.32502893 0.23301692 0.3987214 0.4163474 0.36834735 0.19512936 0.21141568 0.23744483 0.24369535 0.24386346 0.14185753 0.22889568 0.25382265 0.070104405 0.06602462 0.26579854 0.28492707 0.27607095 0.26315352 0.4496687 0.3399933 0.027224064 0.04623358 -0.014420008 0.048153844 0.123407386 0.3017081 0.27059537 0.42120838 0.081033334 -0.010519579 0.12362322 0.3325379 0.378156 0.47462377 0.04304395 0.099679604 0.42424497 0.43544132 0.24886668 0.06432817 -0.19664708 0.24717632 0.55100286 0.5196399 0.4430486 0.3822273 0.05473263 0.615294 0.6098963 0.50189394 0.45997816 0.43116868 0.63067234 0.57539725 0.56979 -0.025580272 0.3870713 0.6040365 0.61998606 0.5770936 0.55748326 0.50791824 0.11874381 0.23062858 0.5244822 0.43889531 0.38522157 0.20093472 0.25938967 0.30549315 0.37418264 0.37728637 0.45233297 0.55096185 0.45731762 0.53950846 0.33316594 0.40508133 0.46923682 0.5458268 0.5680599 0.5452086 0.5975933 0.54576635 0.6162679 0.6574701 0.64565575 0.5931587 0.55587554 0.5366252 0.5709748 0.63050485 0.5981512 0.704942 0.6832053 0.6495675 0.61466175 0.5508728 0.6732665 0.7003996 0.6918421 0.63197505 0.6007811 0.53980744 0.622208 0.6291817 0.5780476 0.54478097 0.5129972 0.4495099 0.3629007 0.35907292 0.54421055 0.5153512 0.37571067 0.17211121 0.35437343 0.3143853 0.28307623 0.18897903 -0.012507506 0.25654456 0.21090204 0.23920694 0.24198732 -0.0074293837 0.1578379 0.23254785 0.2270246 0.04414925 0.23171017 0.18967226 0.73750055 0.030696005 0.24488816 0.20871384 0.741562 0.73320603 0.21877363 0.67578214 0.20383081 -0.05487378 -0.18454054 0.32926437 0.25790092 0.13610294 0.39037186 0.38269877 -0.1935244 -0.16123231 -0.18876164 0.4279521 0.5320837 0.548692 -0.13751021 -0.4347744 -0.19261733 0.5552938 0.5233879 0.5647372 0.58604074 -0.27830094 -0.2899537 0.5708509 0.5452901 0.36819023 0.5131647 0.44148213 0.3614364 0.32160193 0.5681124 0.5892214 0.4732076 0.29919103 0.4799347 0.558605 0.6053133 0.61916715 0.5261083 0.5209832 0.32092816 0.3778067 0.4364016 0.555087 0.6007521 0.6257334 0.5496241 0.58109957 0.5359132 0.48186946 0.37696528 0.50025755 0.4701925 0.45136797 0.61936486 0.60327214 0.5633992 0.50040907 0.39940566 0.639907 0.665976 0.65932584 0.5684408 0.475062 0.31453758 0.6135493 0.14856173 0.69731796 0.7573894 0.78183544 0.5714096 0.5522772 0.20595807 0.6445508 0.6753817 0.77867424 0.46807763 0.51956725 0.35414004 0.21983138 0.23784009 0.2453863 0.28076848 0.16083495 0.24475321 0.2435036 -0.10707264 -0.031906098 0.22400312 0.21709807 0.6949611 0.6769395 0.5706055 -0.06782949 -0.029125802 0.15340307 0.71784437 0.74044895 0.7192582 0.6120653 0.46684647 0.2880134 0.29840338 0.2569476 -0.070780165 0.7304034 0.7456599 0.6103666 0.28506452 0.25878415 0.2825802 0.22192743 0.1320605 -0.34327358 0.7034714 0.68125385 0.6142576 0.21322048 0.22873965 0.2642002 0.23429434 -0.05317004 -0.33253276 -0.14064224 0.2059958 0.55621886 0.49101228 0.18707189 0.21213791 0.060785618 0.22033335 0.10196764 0.2284194 0.35797936 0.29922545 0.48335925 0.52995586 0.030251827 0.55371803 0.44617313 0.3692483 0.29233968 0.23205364 0.12545922 0.48053062 0.2888309 0.6073319 0.2746523 0.35606194 0.2275908 0.27232954 0.35550445 0.5291354 0.6004778 0.6208122 0.49775153 0.41999286 0.38736624 0.3278709 0.21576214 0.09070149 0.3303498 0.46585843 0.52901584 0.404128 0.5114395 0.5394839 0.55938613 0.5457538 0.5175955 0.42621893 0.34648624 0.85364205 0.91426754 0.5665098 0.5698756 0.29405764 0.15683168 0.6739849 0.7829627 0.90766996 0.9618398 0.9628923 0.52126294 0.11308019 0.006672267 0.5593038 0.65810007 0.694005 0.7695601 0.8721217 0.9192463 0.38498658 0.46281376 0.04555923 0.059137635 0.16182134 0.21107729 0.57675457 0.61848855 0.62567675 0.6957779 0.80196106 0.87661517 0.34845605 0.31315872 0.22693501 0.24570698 0.22533408 0.5670645 0.57743484 0.6091052 0.7217181 0.23900658 0.21175334 0.45019192 0.48143834 0.16659643 0.44010532 0.43083775 0.61616224 0.6457219 0.59851384 0.52271056 0.4203907 0.226182 -0.11811726 0.07756593 0.42884612 0.49644053 0.47778898 0.39639232 0.6684996 0.6795275 0.4119233 0.2626157 0.21707194 0.41263515 0.52633595 0.51354194 0.40195233 0.6849437 0.13720828 -0.15347958 -0.010835864 0.45193404 0.48964924 0.50032973 0.44998986 0.65864444 0.61335987 0.4467417 0.42241538 0.56975067 0.5546793 0.17441404 0.07711482 0.37470382 0.08712754 0.3758996 -0.009401865 0.42719445 0.49882334 -0.07102747 0.47579587 0.31940567 -0.009190019 0.37374818 0.27510273 0.2139691 0.014714583 -0.28315112 0.35883608 -0.07016975 0.100656755 0.54865074 0.14611721 0.5745952 0.3638723 0.29580766 0.23812753 0.1741122 0.120649785 0.10541372 0.2626439 0.42624032 0.49791074 0.46581405 0.45242426 0.45258743 0.4242698 0.3826815 0.29676664 0.69844496 0.8055047 0.89935464 0.9554944 0.40569836 0.25479823 0.17812036 0.5856581 0.6154293 0.77417994 0.99313074 0.9742805 0.411531 0.41520563 0.008582374 0.06892464 0.34843853 0.4864846 0.9451121 0.39101693 0.38280016 0.03397577 0.118053876 0.14819235 0.22635773 0.44071501 0.9080015 0.32380956 0.29936087 0.18246056 0.83791375 0.24657252 0.1995171 0.115134366 0.0735041 0.12111662 0.05445354 0.31462306 0.28996158 0.31953907 0.5531192 0.47579896 0.3766347 -0.16967382 0.21621087 0.20461187 0.19176464 0.19065624 0.2552986 0.2858612 0.34776706 0.16171415 0.036179345 0.5413878 0.5408984 0.5222962 0.37017125 0.26820332 0.12659445 0.05600346 -0.20671917 0.014813058 -0.06405304 0.23602845 0.25286663 0.2775525 0.22624916 0.14041679 0.16610628 0.57387114 0.57576656 0.048546508 -0.27844715 -0.02879031 0.1719176 0.16576956 0.15021802 0.25743243 0.2537626 0.21281165 0.583771 0.6062228 -0.21282433 0.089370914 0.029143233 0.07091172 0.39434522 0.27846298 0.22159396 0.58195156 0.6110162 -0.067157775 0.24094799 0.40138933 0.39230937 0.31845382 0.561437 0.5449424 0.46399617 0.045820795 0.037552282 0.15439378 -0.07875998 -0.010776671 0.135972 0.2879393 0.0013572611 -0.040114105 0.2139155 0.49097407 0.61353225 0.5923814 0.19091827 -0.103569515 0.42863905 0.584087 0.7018019 0.69498324 -0.12618208 0.39801168 0.6063456 0.70179594 0.7080121 0.6742981 0.35127133 0.25946584 0.0937526 -0.030770205 -0.14743222 -0.14726394 0.5064658 0.6009776 0.6575938 0.6820416 0.105626136 0.037268072 0.09949708 -0.14451145 0.57724047 0.6218877 -0.11255574 0.36734462 0.1931898 0.38846406 0.13195226 0.19782719 0.12863214 0.098288566 0.053700235 0.0107209645 0.1272898 0.17165613 0.33204132 0.34186628 0.35606366 0.34519053 0.28773484 0.6449677 0.7670443 0.83790946 0.89431536 0.47323203 0.41842753 0.2956189 0.09178078 0.41880327 0.5927027 0.8819325 0.8801998 0.48243007 0.45245084 0.024189204 0.007800947 0.052181885 0.16278729 0.26240066 0.24978472 0.21370986 0.25153863 0.30677742 0.8898252 0.4253772 0.1365937 0.1362884 0.18364063 0.25494164 0.87530565 0.35787517 0.0130076185 -0.01366308 0.026226314 0.1162705 0.8645092 0.83324 -0.06473124 -0.12586218 -0.07799195 0.001999125 0.13864186 0.11297786 0.08091109 0.014952827 0.46823278 0.41760224 0.2433841 0.12829755 -0.2310815 0.013543904 -0.14267048 -0.017691545 0.15308829 0.47090805 0.25352985 -0.16730118 -0.1387479 -0.11977689 0.2866872 0.48385343 0.5046077 0.21520883 0.277667 0.3699987 0.48825157 0.04328251 0.026269037 0.22416782 0.2397024 0.31390065 0.50256276 0.6054964 0.5134362 -0.42545167 -0.21396154 -0.06598767 0.21413647 0.16150866 0.21240942 0.30326745 0.4263292 -0.35557005 -0.10169589 0.21806096 -0.26130864 -0.10679429 -0.01676646 0.396078 0.052801743 -0.32729977 -0.0635997 0.20480669 0.5605029 0.5103673 -0.03344705 -0.17985499 0.11293977 0.54972804 0.13599293 -0.14063767 0.17619148 0.34945035 0.62345266 -0.05531566 -0.1662367 -0.16776112 -0.17114942 0.14125931 0.48456913 0.63694805 0.6455034 0.6378772 -0.14816949 -0.13455354 0.46996087 0.55745584 0.5929749 0.61278975 0.24411151 0.1997324 -0.0072966814 0.25609732 0.23809558 0.15009397 -0.13321647 -0.03182528 0.048390895 0.09477148 0.28680187 -0.08495151 0.23743308 0.36333144 0.34784788 0.30358636 0.31209478 0.31744057 0.6140956 0.7359039 0.778152 0.57136476 0.54753304 0.47555614 0.23360291 0.19082622 0.18296358 0.24162212 0.20161462 0.21807067 0.27523258 0.29630578 0.23925748 0.35502544 0.40267617 0.4797258 0.6954318 0.7747534 0.78928363 0.55226684 0.24835889 0.20028111 0.164174 0.27077436 0.7079297 0.75521386 0.42234188 0.46861142 0.13236116 0.07852924 0.66825503 0.735731 0.22505689 0.34466866 -0.06848823 -0.035095733 -0.09076993 0.017027885 -0.04533384 0.14850648 -0.087673984 0.03761302 0.43191808 0.3848892 0.21904618 -0.23868531 0.31356966 0.41846615 0.42666426 0.41610923 0.52634925 0.67057085 0.74034 0.41079485 0.34384847 0.66381335 0.74864405 0.43646374 0.3427963 0.09935771 0.48655218 0.61616707 0.724988 0.36140174 0.26375142 0.34679133 0.36756974 0.19992444 0.53531456 0.5407732 0.18445502 0.51904196 -0.018745974 0.47899932 0.4210025 -0.071264684 -0.23490295 0.014288358 0.5090567 0.52463865 -0.18769144 -0.19841994 -0.04339242 0.5478892 -0.08033 0.0528993 0.09247488 0.44541758 0.49612838 0.51715815 0.021575168 0.25040185 0.3098736 0.15993893 0.19975728 0.116678 0.3965227 0.41261607 0.18709102 0.10412365 0.050139226 -0.07080263 -0.12532635 0.28687996 -0.11146678 0.13486806 0.33449456 0.4238984 0.40344307 0.38509047 0.44681245 0.46889484 0.45720148 0.24446818 0.24969843 0.2227672 0.2841793 0.24284849 0.48496997 0.57717323 0.5403498 0.44620562 0.3820269 0.23595142 0.21116182 0.28097877 0.27335134 0.24889624 0.17406087 0.12575905 0.19417502 0.26897192 0.24127945 0.1529927 0.29865795 0.39128292 0.45606792 0.58309287 0.6713551 0.590902 0.15740223 -0.008519795 -0.013662294 0.19060957 0.61076444 0.5283799 0.05221925 -0.051472314 -0.16531903 -0.0888882 0.4526237 -0.01817596 0.10042846 0.09585669 0.31614423 0.16558197 -0.029163659 0.16812307 0.33114225 0.5645962 0.6354126 0.28808 0.66472447 0.7306321 0.17316301 0.7828533 0.22206362 0.7645254 0.28123248 0.15846337 -0.12094354 -0.12112446 0.12803635 0.33940858 0.51547074 0.4594403 -0.18287885 0.088619545 0.5629298 0.10979317 0.55969 0.5139397 -0.21650316 0.39994445 0.53903 -0.16984648 0.41751686 0.59968376 0.5808679 0.49319136 -0.07659965 0.38805467 0.39190155 0.36101127 0.62501436 0.6005708 0.51484096 -0.013354655 0.37844604 0.32171068 0.35615963 0.08613515 0.31006995 0.4035681 0.41813645 0.1938482 0.01850864 0.27639836 0.056111705 0.054077823 -0.022061449 -0.11853903 0.4436229 0.40703696 0.3935394 0.45613435 0.4911965 0.481669 0.48085693 0.4931527 0.48992056 0.29327744 0.22173537 0.24353455 0.2337231 0.22610626 0.18287203 0.22285032 0.25448552 0.23202653 0.13572305 0.17452502 0.18681246 0.18341208 0.540186 0.5033391 0.38908723 0.2784311 0.22712627 0.24497566 0.25854483 0.23289701 0.23469946 0.2775026 0.27128905 0.18167932 0.015644267 -0.07125548 0.027535602 0.101037815 0.019546326 0.14214812 0.17535768 0.16466258 0.10637492 0.23052633 0.29629514 0.5495379 0.44219837 -0.03102092 -0.045924507 0.034698807 0.07946768 0.13195363 0.2845381 0.30355385 0.5178815 0.33260524 -0.0028269067 0.100663245 0.10638839 -0.037915763 0.08595189 0.14387998 0.2687313 0.4348893 0.6080071 0.68732584 0.72634053 -0.13746439 0.74970084 0.19575018 0.4281033 0.5175899 0.401888 0.14276345 0.19771203 0.32122383 0.57044613 0.23342848 0.30892757 0.5642415 0.5602887 0.37560415 0.39525092 0.52460974 0.4935051 0.41392037 0.5585774 0.46134245 0.33389175 0.25834823 0.6088631 0.6105156 0.11501914 0.29960528 0.33244216 0.6334777 0.636655 0.5925964 0.37193388 -0.05053287 0.039392836 0.23564667 0.29543662 0.6288681 0.596699 0.53206563 0.05923362 0.07129515 0.14811552 0.37270415 0.26969498 0.08106909 0.07849789 0.19577885 0.074904405 0.33845967 0.3711596 0.38722196 0.06354948 0.110528275 0.09673682 0.07884149 -0.08507759 0.22909525 0.12349948 0.11610853 0.104008034 0.077201895 0.2941091 0.43847072 0.44803682 0.4005894 0.4609224 0.47878128 0.47275332 0.37343705 0.34761143 0.27602696 0.21350165 0.29097658 0.34955716 0.27423114 0.23088741 0.11856765 0.16295788 0.16081624 0.07352594 0.15613055 0.18715483 0.16664255 0.11864416 0.3709526 0.25417927 0.24956968 0.27762362 0.29715565 0.26820052 0.24049789 0.22386295 0.06450654 -0.12121001 -0.1036496 0.08820218 -0.07046191 0.0079830885 -0.030366376 0.38360947 0.32266688 0.258956 0.25367433 0.24297635 0.18709859 0.20380643 0.13223362 -0.09877377 -0.030044153 0.30496913 0.09982515 0.03752646 -0.059787095 0.23531759 0.25070325 -0.09811017 -0.102625154 0.22254616 0.24950038 -0.15816824 -0.07464268 0.17352578 0.021550447 -0.0660358 0.013825983 0.39684486 0.06565516 0.060727328 0.37270927 0.5617771 -0.0046432093 -0.01529539 0.61919653 0.009466145 0.6318148 0.20064665 0.2793504 0.37758434 0.5521657 0.38529456 0.43064106 0.55655956 0.53891915 0.34670824 0.4677231 0.4760843 0.528618 0.50658524 0.06747574 0.45437354 0.4926061 0.42523897 0.10952115 0.18985687 0.20143333 0.61657655 0.17287187 0.18850406 0.61407197 0.6023629 0.5510609 0.4722924 0.2609037 0.020148845 0.063296966 0.29104215 0.24087276 0.07068162 0.10015411 0.035795785 0.06617114 0.08601939 0.0375823 0.26220068 0.10685534 0.12629728 0.12029717 0.10827619 0.11051653 0.10882297 0.10962259 0.09887298 0.101208836 0.2955342 0.38343126 0.36109298 0.320262 0.2682184 0.36443633 0.3654853 0.31363338 0.24949789 0.17282987 0.22640646 0.117471755 0.13943529 0.12792037 0.12201333 0.17451486 0.09374844 0.090912156 0.09786067 0.17109005 0.19902195 0.2636849 0.2782731 -0.13670287 -0.14863062 0.014831069 0.10937746 0.081594475 0.2464802 0.25552 0.26092273 0.27378777 0.28674734 0.22141163 0.042454153 0.0425453 0.20816436 0.22450058 0.21086492 0.16582781 0.14247721 0.10415569 0.12703402 0.029196147 -0.01893042 -0.028318882 -0.3844228 0.101276755 0.30971193 0.20759542 0.11340846 -0.06666313 -0.029115086 0.2473869 0.2694546 0.21102089 0.093441784 0.22075972 -0.078859106 0.1790182 0.16573335 0.0135379555 0.27680817 0.087822095 0.12177628 0.01994843 0.23906091 0.1465097 0.108871125 0.12820747 0.14815558 0.31698978 0.5035255 0.46417913 0.4442595 0.49596304 0.4932544 0.47659764 0.48496556 0.30045825 0.418983 0.5028937 0.5075917 0.21694927 0.11370645 -0.0894559 0.13800615 0.27829188 0.40239567 0.13006894 0.12889695 0.52512884 0.15565109 0.16181749 0.5580568 0.54278886 0.48660153 0.36249438 -0.010993868 0.1655408 0.46664304 0.3793243 -0.043959863 0.058679942 -0.15126552 0.09149248 0.1003471 0.04864047 0.19061974 0.08428774 0.17533427 0.03929346 0.033020016 0.23022795 0.24427773 0.118328825 0.06457408 0.061492577 0.08300484 0.09978341 0.08888343 0.030363841 0.057796143 0.22255436 0.2378104 0.31536868 0.3501622 0.30601978 0.22394624 0.23626745 0.21823356 0.0826821 0.15201823 0.13269265 0.20689562 0.18334116 0.20505676 0.03412094 0.2091844 0.138638 0.081798084 -0.039635744 -0.1873358 0.153086 0.2523684 0.24980511 0.13674738 0.1636742 0.20931639 0.22807267 0.16840327 -0.06329341 0.19017014 0.25152016 0.4998743 0.5478262 0.46301398 -0.052671865 -0.10316706 -0.20119977 -0.23670305 0.25647378 0.3026105 0.40693521 0.39680508 0.30997908 -0.049703773 -0.18681282 -0.242567 -0.63325524 0.2170066 0.18042059 0.22069162 0.27205858 -0.095866784 -0.20978945 -0.24490935 0.12445696 0.19487491 0.20946783 -0.1640401 0.19123544 0.14878035 0.057607777 0.049616404 0.052081585 0.07832149 0.055316705 0.060270175 0.23067637 0.17014964 0.36517805 0.39498812 0.41540062 0.4658736 0.39772806 0.16879521 0.44676745 0.4646139 -0.049165506 0.20116284 0.28822213 0.37534568 0.45492473 0.20090708 -0.005077144 0.04693471 0.0728731 0.4234986 0.47863358 0.48126042 0.030747287 0.47256505 0.40247846 0.27296472 0.057566293 0.036037676 -0.097223535 0.09596752 0.11227371 0.10928814 0.06521012 -0.08201243 0.16735895 -0.052319065 -0.0072274394 0.2555889 0.29131258 0.09660808 0.018181317 0.066301726 0.07312806 0.071611814 0.04974943 0.16877127 0.15190735 0.27350998 0.3129301 0.29278517 0.22217941 0.12911223 0.022201918 0.043541294 0.111067854 0.15957285 0.28401482 0.21577269 0.23619112 0.1873935 0.09778409 0.09979872 0.24332988 0.14162847 0.058697473 0.049702782 0.11816036 0.1375427 0.06658308 0.11707254 0.156968 0.15384318 0.18740356 0.07760975 0.21083762 0.18508372 0.23743497 0.093609236 -0.053104676 0.017679565 0.17947477 0.22357237 0.2500715 0.17255166 0.09495881 0.18170947 0.23305906 0.16550162 0.19310355 0.20826127 0.48129445 0.50682116 0.45360118 0.040353492 0.28659123 0.30269825 0.39358816 0.3525176 -0.22390957 -0.09877892 -0.14247747 -0.24373391 -0.11459488 0.30242622 0.2948122 0.14704728 0.24417934 0.29810846 -0.24984227 -0.20831436 0.24042141 0.15009235 0.12224183 -0.32375082 -0.3248133 0.14461368 0.14888299 -0.3689376 -0.3599937 -0.32572848 0.054662813 0.19334391 -0.1187236 0.12011586 0.09898475 0.35988092 0.029199462 -0.014751613 0.28304496 0.45677012 0.12727201 0.3150875 0.25017178 0.24011704 0.22989836 0.1212013 0.30169377 0.28797054 -0.15256879 0.31884187 -0.15624543 -0.14781725 -0.1475591 0.18962717 0.2682373 0.31729028 0.3165572 -0.19955674 -0.12047598 0.36035806 -0.11398283 0.41578966 0.42706895 0.00646076 -0.058949303 0.44248575 -0.122523315 0.012261972 -0.03461882 0.14608303 0.17039068 0.1470331 0.09104795 0.13067745 0.16784777 0.1762003 0.1937276 0.18236269 0.03013283 0.040340178 0.03321585 0.078420445 0.2507535 0.2093041 0.20415846 0.25207272 0.29360533 0.10791975 0.031279393 0.0045746863 0.027428713 0.025473855 0.06824689 0.1762167 0.25111592 0.33227608 0.3468115 0.2664916 0.29357097 0.24603787 0.1438012 0.16728017 0.19733925 0.6565217 0.6656492 0.6602328 0.07925372 0.13541608 0.124161564 0.14065148 0.16850246 0.16197677 0.13623412 0.6009014 0.6209841 0.64054924 0.6574838 0.61520964 0.033586174 0.08993605 0.117973074 0.116167136 0.5143734 0.54927826 0.5617798 0.55119956 0.52035016 0.03474887 0.0053588487 0.12617482 0.113476135 0.49922788 0.46045548 0.4669181 0.4491948 0.37262142 -0.08239994 0.0018114452 0.6925597 0.58556974 0.3448767 0.38848776 0.36866918 0.37461627 0.21514255 0.1007664 -0.23537904 0.13951793 0.18956159 0.7095835 0.6898272 0.4991509 0.30008066 0.26301208 0.3672974 0.48571724 0.22660956 0.25202695 -0.10933554 0.21885774 0.25772175 0.68432343 0.6487074 0.48672438 0.19771302 0.30295217 0.3393757 0.45921436 0.49816158 0.13353367 0.27533773 0.1195956 0.3093706 0.4441297 0.4350274 0.017717391 0.28061342 0.107063204 0.18429753 0.37405896 0.009578094 0.011468694 -0.023252