# vtk DataFile Version 2.0
Really cool data
ASCII
DATASET POLYDATA
POINTS 2672 float
24.357527 22.137466 -1.0502837
24.344921 22.091087 -0.6517027
24.378143 23.029535 -1.8977665
24.210663 22.704378 -1.3999667
24.171795 22.687567 -0.5119294
24.316282 22.703629 -0.043696895
24.297108 23.309347 -1.8630943
24.084309 23.468904 -1.3200976
24.049011 23.44058 -0.4862629
24.217682 23.548246 -0.048195302
24.186468 24.004164 -1.252393
24.17464 24.145126 -0.66290903
24.166962 32.73527 -4.3252096
24.101215 32.763847 -3.6505835
24.273586 32.793488 -3.140423
24.359991 33.535583 -5.0533743
24.05769 33.339542 -4.2746835
24.038584 33.326405 -3.6380339
24.28397 33.553455 -3.0341315
24.401854 34.698532 -5.230365
24.227211 34.39971 -4.502429
24.273745 34.27295 -3.665505
24.2785 33.98928 -3.17671
24.390316 35.112354 -4.498027
24.395077 34.92067 -4.093307
24.98147 22.135275 -1.9977723
24.710238 21.943007 -1.3937513
24.712208 21.780525 -0.5752887
24.793455 21.960085 -0.04094924
25.127472 22.990767 -2.6009843
24.82913 22.75432 -2.2946358
24.430723 22.369396 -1.639226
24.798018 22.595139 0.3812279
25.05932 23.196688 -2.5722694
24.6653 23.339611 -2.2373776
24.539934 23.351744 0.37328416
25.027044 23.664787 0.7285733
24.858852 24.129986 -2.0956025
24.424923 24.240046 -1.4319487
24.535896 24.520456 -0.34854326
24.763252 24.239513 0.29099548
24.94479 23.994423 0.61802155
25.2243 24.812836 -1.7002802
24.9274 25.069382 -0.3933972
25.396378 25.76237 -0.43685958
25.31454 31.229753 -4.574427
25.1694 31.073864 -3.2047374
24.831545 31.696072 -4.3401794
24.920649 31.340233 -3.7286465
24.822542 31.868761 -2.995845
25.084936 32.814014 -5.6876206
24.628418 32.57449 -5.0036497
24.44736 32.252663 -4.4923725
24.564398 32.606747 -2.7891114
25.094023 33.506573 -5.8734756
24.623074 33.76803 -5.477469
24.559078 33.755745 -2.6326628
24.90028 34.59237 -5.9158387
24.635183 34.541214 -5.5911875
24.509521 34.34859 -3.3656485
24.687641 34.12111 -2.7945
25.01252 33.87582 -2.2379894
24.919254 35.30188 -5.8294168
24.669783 35.408375 -5.359296
24.549248 35.44238 -4.6391606
24.810781 35.439198 -3.8143184
25.213686 35.81711 -5.802168
24.962675 35.960625 -5.2629986
24.888874 35.929996 -4.5805707
25.011791 35.864143 -4.1562977
25.355173 21.457901 -0.9578096
25.502394 21.427113 -0.6440148
25.299494 22.036493 -2.05718
25.384388 21.584408 -1.2875704
25.298267 21.521791 -0.37819344
25.47852 21.755302 0.15239638
25.6978 22.111988 0.65562034
25.463406 22.824453 -2.6185277
25.305244 22.479435 -2.4254377
25.995901 22.683887 1.0667365
25.236824 23.255695 -2.59906
25.26027 23.688374 -2.5356429
25.732767 23.5263 1.1388258
25.217306 24.225431 -2.1965082
26.062809 24.365135 1.2341278
25.905128 25.218048 -2.1264472
25.441826 25.59458 -1.3693489
25.70477 25.508717 0.4005634
26.243877 25.56708 1.0458764
25.992653 26.413412 -1.1167742
25.907736 26.454258 -0.41913414
26.325195 26.117794 1.0587826
25.895527 31.112667 -5.3128724
25.97052 30.65437 -4.7368736
25.586145 30.57815 -3.5991938
25.634819 30.704788 -2.9146397
25.95703 30.982563 -2.2829404
26.240332 31.457432 -5.809551
25.46341 31.492146 -5.203235
26.190125 31.520239 -1.8298967
25.89538 32.49738 -1.851802
25.535526 34.041023 -6.4145637
25.622232 34.636703 -2.4524906
25.597208 34.20149 -2.1631272
25.9439 34.878647 -6.5989375
25.48636 35.416317 -6.174583
25.568483 35.3494 -3.4754362
25.329468 34.83421 -2.8486247
25.605846 36.02139 -5.763522
25.603645 36.299503 -5.227267
25.911304 36.344772 -4.832384
25.279509 36.076416 -4.1744514
26.483822 36.415657 1.9944928
26.191275 21.460596 -0.92623264
26.328608 22.116873 -2.0282993
26.127848 21.71217 -1.5071338
26.409466 21.88688 0.36124128
26.226109 23.01474 -2.6841414
26.36237 22.454586 -2.3237503
26.48876 23.313011 -2.5356703
26.497965 23.86087 1.5813286
26.828638 24.216143 -2.5550199
26.41964 24.819937 -2.479975
26.325481 24.813179 1.4037116
26.46936 25.271215 -2.3961
26.963654 25.72243 1.7991469
26.515442 26.268648 -1.9312723
26.762728 26.26592 1.3688595
26.388762 26.855831 -1.12659
26.872753 27.24608 0.61699134
27.327202 27.457596 1.4522378
27.345613 29.103228 -3.7814248
27.04943 28.148046 -0.19018483
26.69607 29.864723 -4.0217266
26.811838 29.662786 -3.4075525
26.57511 30.57247 -5.104063
27.127289 31.857035 -6.811856
26.395832 31.332825 -5.8571434
27.397516 32.241505 -7.547013
26.326546 32.937584 -6.4563046
27.09362 33.27131 -7.4296155
27.280159 33.983803 1.495952
27.307556 34.09137 1.894274
26.64195 34.166374 -1.9988511
26.980354 35.080402 2.0347772
26.733805 34.987988 -6.7576523
26.361372 34.976845 -2.6543171
26.84797 35.53353 0.82025295
26.80652 35.443115 1.8084247
26.74523 35.75288 2.3968291
27.121035 35.82675 2.9146557
26.464264 36.4737 -5.564042
26.210749 36.47836 -4.8888574
26.671322 36.56889 0.74813724
26.564209 36.450268 1.5716347
26.672142 36.470604 2.3784957
26.991478 36.40677 2.8550844
27.384563 37.8006 -6.9800625
27.43081 38.00921 -6.164843
27.007402 36.713722 -5.306536
26.924026 36.74116 -4.5190415
27.293312 36.754208 -3.8381944
26.863874 37.138393 0.7924887
26.765976 37.211197 1.5772408
26.872753 37.116627 2.324003
27.138426 37.06706 2.7972054
27.278723 38.785202 -7.801266
27.128134 38.723644 -5.978662
27.00756 38.832497 -5.637301
26.977962 39.008865 -5.112279
27.121677 37.78685 1.4679368
27.20798 37.759453 2.057784
27.441431 39.42799 -8.088492
27.208818 39.29842 -7.2660604
27.070793 39.599445 -6.457263
26.93563 39.52707 -5.4301558
27.072933 39.530922 -4.8983645
27.216288 40.020855 -6.288135
27.148153 40.05221 -5.5151467
27.224506 40.02935 -5.042362
27.335205 22.09411 -1.4740367
27.300173 21.848799 -0.59134024
28.341578 21.465437 1.812968
28.340925 21.578335 1.9395145
27.19053 22.685661 -2.0764885
27.276073 22.430517 1.243112
27.620949 23.244202 1.7184207
27.202168 24.655247 -2.659763
27.222532 25.788054 -2.4380882
27.38296 26.14757 -2.2932065
27.777971 26.308426 2.173312
28.442865 27.401121 -5.930646
28.20842 27.818727 -5.4082637
27.956713 27.349064 -2.6885326
27.76459 27.148113 2.109899
28.316261 28.310984 -6.1822124
27.982216 28.801048 -5.535435
27.805689 28.391994 -3.2451544
27.572647 28.605501 -2.9801786
28.440022 28.888735 5.495876
28.296816 29.09198 6.2492976
27.930758 30.020515 -7.135337
28.146248 29.391848 -6.3022256
27.786884 29.220814 -5.298897
27.878876 29.17536 0.55752873
28.423393 29.198532 1.9130974
28.247704 29.72596 4.8539715
28.15828 29.353977 5.46893
28.23406 29.614101 6.4237175
28.319487 29.640978 6.754957
28.201754 31.225576 -8.897089
28.079554 30.804304 -8.237623
27.618473 30.86982 -7.3516207
27.409058 30.48758 -6.1937637
28.37365 30.360113 4.670812
28.231516 30.432959 5.693655
28.277822 30.292734 6.259806
28.378216 30.057867 6.814049
28.07377 31.635075 -8.925292
27.76602 31.52453 -8.401205
27.663967 31.058123 -0.5836516
27.986805 31.516655 0.3139774
28.291142 31.307762 1.6910267
28.388456 30.822262 5.7778025
28.040655 32.416676 -9.009196
27.802946 32.437115 0.25911117
27.689402 32.80725 1.7493693
28.029129 32.571648 2.0026534
28.084284 32.874027 -8.996084
27.464512 33.78483 -7.618258
27.450933 33.627415 -1.2494056
27.611523 33.288494 0.5861005
27.52411 33.366848 1.5022488
27.94121 33.404644 2.5801609
28.151918 33.99814 2.981556
27.86336 34.4976 -7.55948
27.99732 34.45802 2.8374166
27.637417 35.02198 -2.1818902
27.703316 35.37376 3.0633187
28.100039 36.960808 -7.244783
27.480171 36.449352 -3.353712
27.51998 36.32445 3.18618
28.155941 38.129116 -10.582701
27.686892 38.032623 -8.070522
27.883709 37.261806 -7.4059467
27.851946 37.52384 -4.226284
27.67795 37.552204 -3.903265
28.009113 36.977524 -0.16965383
27.40367 37.55445 2.5818765
27.792778 37.255142 2.9546447
28.270319 38.768055 -11.570676
27.93372 38.693184 -10.451156
27.664772 39.007732 -8.9448185
27.536303 38.853302 -8.746497
27.902128 38.733013 -4.238989
27.746845 37.975605 0.89544576
27.61872 38.06723 1.6816936
27.563906 37.84892 2.2737586
27.793207 37.748074 2.72768
28.282267 40.092117 -14.959273
28.308123 39.876125 -14.446371
28.285461 39.802605 -13.788998
28.104433 39.568306 -11.544033
27.960533 39.436607 -10.18357
27.726145 39.527523 -9.129732
27.406967 39.611504 -4.5626454
27.764925 39.45535 -4.319969
28.239471 40.32878 -15.139593
28.075336 40.471455 -14.44171
28.14958 40.44269 -13.353586
28.264645 40.523354 -12.541137
28.17451 40.867805 -11.876101
28.044254 39.99769 -10.795807
27.82405 40.143528 -8.175382
27.981615 40.476246 -7.4423404
27.608057 40.48549 -6.393562
27.53278 40.477947 -5.5071664
27.643995 40.224895 -4.7931013
28.271353 41.168503 -15.101503
28.20308 41.379086 -14.479585
28.23228 41.39719 -13.585803
28.448032 41.634026 -12.236647
28.332197 41.441914 -11.643731
27.933537 40.735554 -6.2128205
27.978523 40.73417 -5.41003
28.44627 41.824787 -12.406764
29.151075 20.768688 1.0309352
28.786465 20.838896 1.6813332
28.77526 20.987364 2.2214437
29.067312 21.161293 2.9390695
29.01221 21.65768 3.2588146
28.604164 22.346832 2.7171738
28.948133 22.820572 3.4141865
29.279322 22.593899 4.2917666
28.181904 23.629696 -1.9787216
28.94052 23.84788 2.4425669
28.10434 24.195848 -2.1913395
28.822245 24.253374 2.4892948
29.417234 23.873142 3.5527725
29.365255 26.171865 -7.450704
29.392918 25.832336 -6.665023
28.450474 25.86508 -2.4520614
29.417974 26.487913 -7.8035235
29.200531 26.459751 -7.225794
28.947601 26.384142 -5.9324536
28.855057 26.54102 -5.3077374
28.82275 26.810114 -3.4773676
29.169098 27.124256 5.212344
28.98137 27.664488 -7.1419578
28.517702 27.733517 -6.3180647
29.305 27.503788 4.4766645
29.366758 27.287867 6.558909
29.327785 27.866652 7.0066233
28.663832 28.257856 -6.7827187
28.993006 28.440834 3.1620035
28.563124 28.808943 4.3319697
28.637022 28.603477 5.651586
28.955635 28.386381 6.723108
29.052595 28.663492 6.967084
28.533428 29.920265 -7.976758
28.699997 29.72926 2.8897386
28.51317 29.561075 6.9275713
29.278025 29.611511 7.702295
28.768404 30.875278 -8.912305
28.466557 30.316248 -8.267093
28.994965 30.050137 2.6080565
28.467781 30.27914 4.0469847
28.649477 30.284187 6.917824
28.572205 31.546652 -9.311451
28.519472 31.447083 2.471707
28.700987 30.99361 4.287834
[...]
POINT_DATA 2672
SCALARS features_00 float 1
LOOKUP_TABLE default
0.9215361 0.9280758 0.8138988 0.8856693 0.93177056 0.8953768 0.8029783 0.86740285 0.897596 0.8362558 0.83283097 0.8331279 0.6344714 0.6440351 0.6281911 0.62236965 0.6469215 0.6261996 0.5878321 0.6807424 0.6591414 0.5990876 0.5773606 0.6689495 0.6315546 0.8418906 0.89711213 0.90882975 0.87850153 0.7519052 0.7936857 0.8707931 0.82259065 0.7400378 0.76116943 0.7681285 0.61446345 0.6897719 0.77906346 0.73322034 0.6303419 0.59108704 0.6411604 0.6552297 0.566023 0.40627968 0.52610224 0.5111022 0.53216416 0.60167885 0.43392473 0.5294045 0.5754035 0.6139205 0.4897769 0.5925095 0.54800725 0.6176164 0.6503161 0.5703125 0.5363863 0.49073505 0.6646788 0.69057566 0.6763092 0.58260655 0.64432836 0.653118 0.63833225 0.5947515 0.88192004 0.866371 0.8346819 0.8791168 0.8690944 0.82031703 0.734599 0.74354774 0.7838578 0.5793824 0.7213497 0.68065166 0.5013398 0.65040666 0.36110258 0.527505 0.590457 0.43034935 0.31245387 0.52436024 0.4866278 0.2707017 0.2614 0.2828166 0.41875416 0.47135743 0.48418108 0.18810119 0.34707475 0.42381313 0.49464017 0.4701505 0.414625 0.40809983 0.4952544 0.60683775 0.46444076 0.46956056 0.601121 0.5741704 0.5004984 0.5527457 0.66903603 0.8174444 0.78089124 0.82154185 0.71171063 0.68055665 0.738792 0.64212835 0.32489836 0.5514111 0.52093166 0.29185063 0.47692746 0.1602577 0.4325658 0.20566186 0.47629684 0.23542804 0.14407039 -0.03314298 0.2367363 0.17348331 0.15632038 0.14962602 0.16427992 0.15693003 0.28848994 0.25078526 0.2741835 0.31300104 0.372398 0.22570214 0.5112545 0.34455526 0.2835963 0.53004056 0.55680746 0.6192551 0.62156415 0.43333453 0.45108017 0.6652291 0.6646849 0.6732069 0.66573536 0.34517276 0.33045483 0.20957832 0.22533552 0.06945772 0.6628699 0.6604364 0.66047245 0.6504613 0.35246116 0.4665653 0.4779021 0.478208 0.6319158 0.6229843 0.34377533 0.42299563 0.5152734 0.54526126 0.524062 0.54073966 0.5671923 0.5602176 0.6469829 0.69051117 0.38842276 0.37506682 0.6221397 0.30023295 0.19701795 0.46989337 0.3626725 0.30813617 0.10255206 0.19150516 0.09856898 -0.2663316 0.10537536 0.09853344 0.037278235 -0.081460655 -0.053295 0.4172351 0.4422524 0.10080727 0.022747822 0.008055128 -0.05980792 -0.14336774 0.41075367 0.4594368 0.47342122 0.45938903 0.33296397 0.2897056 0.18141058 0.010983989 0.3985988 0.50420505 0.5053904 0.4772568 0.34382346 0.32040918 -0.2536854 -0.08478163 -0.07373077 0.51093996 0.342259 0.014822494 0.15394759 0.14576629 0.32057807 0.24916928 0.08992737 0.11320306 0.22117381 0.31538737 0.372743 0.15423921 0.42838657 0.05249839 0.5316365 0.19176586 0.05105861 0.6407362 0.17645982 0.27896968 0.2427399 -0.02870179 -0.041861907 0.3649047 0.6163322 0.5872229 0.20773746 0.18381436 0.26809865 0.27891105 0.22661236 0.59699476 0.5803097 0.58957124 0.55888426 0.41852155 0.39935625 0.37455937 0.20570643 0.19228037 0.25727135 0.49019092 0.41405773 0.42585075 0.40648258 0.35493642 0.25478125 0.20523244 0.17891128 0.3201523 0.41162065 0.53059804 0.5631989 0.5432179 0.418091 0.39941943 0.34758434 0.23002395 0.20650437 0.5245123 0.53828895 0.23567209 0.53486663 0.49246907 0.45943934 0.442428 0.41787496 0.34322524 0.3259391 0.35812643 0.41887897 0.11615725 0.39467224 0.05916883 0.18129924 0.4183366 0.4124535 0.19991694 0.41030663 0.3933971 0.32980675 0.24928486 -0.0953008 0.22416142 0.25792664 0.18400696 0.17970729 0.17917575 0.23131365 0.1275288 -0.029260643 0.25372005 0.38811493 0.33236432 0.34238553 0.22530416 -0.091143414 0.4398231 0.37803715 0.31143093 0.27657852 -0.16993831 0.22674307 0.4747873 0.34320515 -0.05697275 0.28398728 0.50326693 0.49900797 0.47130582 0.3273607 0.25168023 0.32200402 0.13454278 -0.05872067 -0.09487086 -0.0965046 0.4579188 -0.0054345224 -0.31936818 0.20360392 0.12628445 0.118256226 -0.10966551 0.5110115 0.40564263 0.33645868 0.30016926 -0.09693168 0.44151756 0.49034226 0.41583657 0.38789284 0.4324993 0.43420058 0.1383161 0.41399586 0.38057607 0.19750476 0.19374517 0.43196237 0.4634476 0.4805547 0.35179925 0.22880256 0.24863797 0.31009242 0.31210548 0.44570905 0.35428625 0.20121214 0.20095772 0.2793134 0.3381317 0.37550175 0.47726196 0.442568 0.30353546 0.36058623 0.5333771 0.4937389 0.5553942 0.53012717 0.4834742 0.4415644 0.41477618 0.49252555 0.4259926 0.39873546 0.37279713 0.23563084 0.3717227 0.3507755 0.29519808 0.28040826 0.42577296 0.43771076 0.41070285 0.37269536 -0.09172665 0.050457567 0.17444931 0.387774 0.45506358 0.4232892 0.43131456 0.42870724 0.3508518 -0.021133766 -0.026173688 0.38418925 0.43815184 0.3916921 -0.009239174 0.33382955 0.31780174 0.118789405 0.009499185 0.19223034 0.28536677 0.29640263 0.1590006 0.24974626 0.20971066 0.273318 0.38031584 0.30441937 0.41272983 0.21757266 0.045224607 0.41555586 -0.09064716 0.14969674 0.36886376 0.26296932 0.06032538 0.37883347 0.320407 0.15492292 0.38769966 0.40183535 0.21158615 0.007174121 0.3816209 0.49732304 0.45315123 0.14903198 0.10036884 0.35044575 0.48841232 0.46024436 -0.21198729 -0.1135604 -0.086930886 0.058268845 0.49148318 0.016135648 0.109902725 0.19670299 -0.030590026 0.43284598 0.2912687 0.18577601 0.19964184 0.26108554 0.25307834 0.19859897 0.34391892 0.34142056 0.49562472 0.3850751 0.5212062 0.5090943 0.19341683 0.24488252 0.29707667 0.36966437 0.39524066 0.5264968 0.51241624 0.47968197 0.41659993 0.30524176 0.3455503 0.6120585 0.56082785 0.49697798 0.433819 0.61276233 0.60728085 0.42685795 0.3999673 0.3503062 0.22918649 -0.004871726 0.4477129 0.5507816 0.5702606 0.3953883 0.43296224 0.40775168 0.37165296 0.1952675 -0.039653346 -0.020834193 -0.06887764 -0.053205825 0.12899147 0.37510794 0.5063103 0.5234156 0.5314423 0.36219388 0.40630412 0.44608697 0.4880516 0.30609402 0.38884622 -0.02804333 0.09072748 0.23425558 0.32446834 0.4014607 0.23241848 0.22219352 0.23193705 0.13833773 0.18070042 0.22461742 0.2427487 -0.022547591 0.07717259 0.2394461 0.19000275 0.12067413 0.35710213 0.094883464 0.41925144 0.18570392 -0.27972758 0.48311174 0.39191622 0.5850574 0.46971318 0.4394078 0.063801125 0.2489274 0.10598926 0.5213437 0.16595799 0.54688483 0.5440562 0.042578135 0.52562416 -0.041581716 -0.110109456 0.3780584 -0.08391836 0.21462815 0.033182997 -0.00055830926 0.5233563 0.13555087 0.13779832 0.06994497 0.19190064 0.24522738 0.23579915 0.1472588 0.3205569 0.20799065 0.19399281 0.5813428 0.3714373 0.5717944 0.5547129 0.4167518 0.38360626 0.529561 0.5033983 0.34372428 0.27255738 0.34455213 0.3962983 0.44674206 0.47284895 0.4462299 0.44114625 0.4122597 0.33801684 0.35645446 0.4450021 0.64180326 0.6336764 0.56507015 0.45089102 0.39090484 0.63516825 0.31888416 0.2999785 0.5799889 0.6120624 0.29204613 0.27574247 0.44462237 0.45330054 0.54017186 0.60399485 0.6465739 0.39512527 0.32043546 0.1897555 0.62013257 0.6007211 0.4803421 0.41863742 0.23179185 0.074609816 0.08708962 0.54074776 0.4376186 0.50650734 0.401178 0.18492195 0.11393397 0.25240856 0.34276798 0.11293072 -0.017109545 0.28536505 0.32480365 0.29679778 0.3569148 0.04822804 0.269507 0.30174 0.31022525 0.07839895 -0.07381674 0.42045027 0.53791505 0.55193686 0.51202446 0.35921878 -0.007890403 0.06725296 0.38284558 0.55053425 0.5797852 0.5644876 0.5318617 0.058898173 0.030154854 0.30000418 0.48618862 0.583081 0.6224172 0.6210124 0.50000614 0.0848905 0.054317415 0.063787356 0.07971583 0.3784708 0.56177676 0.6742146 0.6908165 0.6665955 0.44138134 0.08480651 0.056861486 0.5691522 0.6938143 0.7073302 0.5542885 0.5227362 0.05775299 0.1733409 0.15867409 0.6034221 0.657607 0.5612916 0.5586037 0.030944247 0.14738715 0.17968717 0.5376961 0.018588567 0.11323868 0.19274855 0.017753817 0.048241027 0.6278725 -0.07585556 -0.013051368 0.15128373 0.06659896 0.03809157 0.043191403 0.29186535 0.40677446 0.6636689 0.6388688 -0.14834511 -0.13907948 -0.09024915 0.1609684 0.1611008 0.17306055 0.145036 0.264587 0.6273955 0.3065175 0.13999641 0.114125624 0.6243627 0.5217289 0.4852968 0.50771457 0.46841687 0.4646492 0.4558668 0.504561 0.49606577 0.5334733 0.4908951 0.48657635 0.5075656 0.63202655 0.5591289 0.45534247 0.3057089 0.622528 0.61307883 0.5456801 0.4035415 0.29460633 0.265558 0.2861455 0.267547 0.5735618 0.21246661 0.17328463 0.4963295 0.58445436 0.32469773 0.5725868 0.63294804 0.6362077 0.6006509 0.5712053 0.5254595 0.47498548 0.36073047 0.22373156 0.26303285 0.60529697 0.5837217 0.5468538 0.49123767 0.40219966 0.1809348 0.5580168 0.5360119 0.46331465 0.4009045 0.4886226 0.28930375 0.29393792 0.5994226 0.6443681 0.21379143 0.5666828 0.6489197 0.08120631 0.4210037 0.5471094 0.09756698 0.59159476 0.36256182 0.49277765 0.52718043 0.5544143 0.5218066 0.59088326 0.49022847 0.63425016 0.08514857 0.09009246 0.6812407 0.6443951 0.54844993 0.53455067 0.33946392 0.57395166 0.64392257 0.66663706 0.55097824 0.5453402 0.1553247 0.50340194 0.19334798 0.14197102 0.16468167 0.6561063 0.47133982 0.57932425 0.69419986 0.6720072 0.18727921 -0.13901895 -0.13080443 0.13412549 0.3149224 0.6414225 0.68938553 0.72988397 0.6748177 0.6558607 0.2855202 -0.18351132 -0.031827487 0.12373858 0.056180187 0.3280369 0.54118156 0.70718026 0.740691 0.6436158 0.39994505 0.33162126 0.21689627 0.078569636 0.059416443 0.4374932 0.6230953 0.7141745 0.7490908 0.47754467 0.39969796 0.46183264 0.44675487 0.4874292 0.5015623 0.54651105 0.55360574 0.5518215 0.5410508 0.5260314 0.4797051 0.49838835 0.5192229 0.529174 0.5361405 0.5759456 0.57718337 0.550369 0.58520234 0.49549243 0.21458063 0.2067444 0.24822818 0.2565004 0.22336625 0.4245547 0.4183467 0.17253198 0.30430984 0.43587226 0.5423199 0.21601778 0.18663308 0.02903682 0.36438522 0.5284648 0.5934553 0.6059748 0.67957217 0.64235586 0.6036763 0.27139834 0.5373264 0.6531631 0.6701723 0.2314156 0.2567601 0.46274593 0.57777345 0.6029457 0.103638045 0.19626918 0.5261439 0.4353978 0.6165074 0.47382244 0.4162075 0.61258864 0.6653546 0.2624627 0.72302896 0.1577923 0.7314048 0.21807505 0.16501386 0.59704936 0.64120305 0.2993641 0.2984068 0.52162546 0.47490537 0.36684126 0.49570137 0.59889543 0.57334423 0.50529593 -0.014228955 0.08151158 0.3150344 0.37048954 0.5289183 0.60799015 0.31132743 -0.024359524 0.2068666 0.26207072 0.35277158 0.5238661 0.33359975 0.07983355 0.3889744 0.32821888 0.68680876 0.6894453 0.6288892 0.60954833 0.70806813 0.7209698 0.6919129 0.7031734 0.71988416 0.7736678 0.75688624 0.6997833 0.31133398 0.35661018 0.28876716 0.11029872 0.09967456 0.086560555 0.42043352 0.60728 0.7109879 0.77236223 0.54332227 0.42681974 0.41500932 0.39763418 0.3911077 0.19940609 0.08804467 0.08969218 0.18812414 0.65924555 0.53443325 0.5446055 0.55640876 0.554979 0.53008306 0.48703915 0.48338145 0.46348232 0.48215935 0.5213243 0.4267022 0.3036706 0.5428208 0.5523658 0.59428585 0.59132844 0.54142296 0.43396473 0.58528113 0.54494745 0.4814111 0.22493677 0.19237643 0.16161802 0.16125472 0.12119493 0.2091091 0.13760597 0.21194153 0.5193709 0.5048256 0.7379723 0.731666 0.6983949 0.22710997 0.20121673 0.40553173 0.668105 0.25459236 0.13473749 0.17154515 0.36816567 0.5889923 0.6254189 0.560514 0.48198402 0.57585204 0.5219134 0.4855716 0.64968187 0.69973814 0.75425255 0.19518632 0.7409447 0.29704523 0.63748956 0.32832453 0.31033272 0.43030727 0.3333379 0.23927015 0.29913664 0.21850434 -0.015584357 0.37238932 0.062070683 0.48052132 0.4357835 0.392568 0.27457255 0.32371318 0.20222177 0.21126488 0.33174583 0.71482 0.6579242 0.3715486 0.5718409 0.704639 0.6616658 0.56975245 0.47419158 0.19974482 0.69495857 0.6943948 0.6370473 0.7307061 0.73388857 0.6421728 0.52338994 0.49568436 0.31839505 0.37149942 0.2730387 0.21252646 0.2793215 0.27225927 0.59856564 0.6734079 0.740187 0.49420282 0.50494677 0.52866733 0.4145794 0.30802366 0.27041954 0.32032388 0.48822904 0.557806 0.5599652 0.5660403 0.54786694 0.4472248 0.1884976 0.13876486 0.33964953 0.5768846 0.5956304 0.30338192 0.29526755 0.55827737 0.54176164 0.53077567 0.42498326 0.18918611 0.21280318 0.20655544 0.102921024 0.058411162 -0.061468262 0.25870657 0.4260795 0.40882018 0.7473372 0.74323106 0.16187023 0.39694703 0.39458913 0.64548004 0.6922356 0.67127657 0.49524355 0.33052886 0.3217276 0.5861445 0.5939822 -0.0062577315 -0.1847265 -0.39520264 -0.24308097 0.2016145 0.53603375 0.5360966 0.19577414 0.48344058 0.5192216 0.4191946 0.6534766 0.70209455 0.37511548 0.7785244 0.7031164 0.33937976 0.498694 0.63653874 0.35520226 0.35278127 0.2727159 0.4649512 0.35701832 0.34700656 0.33972895 0.12837861 -0.112194404 0.32331207 0.29773325 0.21024033 0.26643997 0.2462823 -0.11938025 0.16310444 0.22185752 0.3057766 -0.036094822 0.4940202 0.5673969 0.633803 0.6054158 0.5547871 0.3993777 0.3837673 -0.047720537 -0.26113847 0.62769735 0.48115844 0.45695236 0.3771628 0.43711376 0.4102241 0.039909363 -0.16078371 -0.2608503 0.5827218 0.6842613 0.4832582 0.47030336 0.46807384 0.27178133 0.2804855 0.44462168 0.1176178 0.266131 0.34273207 0.3550283 0.44058 0.43239725 0.21237668 0.43414932 0.44854695 0.43586692 0.29680884 0.32454628 0.30076414 0.27187422 0.23265865 0.25934774 0.23685342 0.23164198 -0.06801425 0.23091091 0.35291344 0.12596118 0.30300182 0.12321058 0.29384243 0.20315373 0.284235 0.54818094 0.4942543 0.48386863 0.45275098 0.16152851 0.12728807 0.516622 0.58678234 0.22913097 0.009289846 0.49153194 0.70633084 0.19039235 0.66435814 0.35904837 0.61313784 0.38300425 0.37644082 0.37323102 0.3600434 0.26858813 0.18014173 0.22937173 0.32047704 0.23617709 0.3419739 0.4086674 0.22979265 0.15116575 -0.013538815 0.20719346 0.18623747 0.39123642 0.43530253 0.45032492 0.23795508 0.18720153 -0.39826363 -0.40081197 0.49805754 0.4864459 0.47863925 0.0028122999 0.5320683 0.52015805 0.27061468 0.18353601 0.5661308 0.16219479 -0.0016070008 -0.09015413 0.56883854 -0.18484867 0.23881924 0.30366963 0.28824806 0.05439107 0.30269274 0.31457484 0.28584835 0.07836104 0.33834183 0.25181055 0.19144078 0.38596666 0.40205175 0.30422997 0.31649974 0.30520174 0.28932634 0.27420974 0.31583583 0.42662174 0.38260525 0.3442738 0.02759245 0.29040107 0.47083306 0.3882302 0.38000107 0.28058678 0.2198906 0.31739873 0.16776049 0.13195734 0.2822509 0.12920992 0.31832922 -0.06878321 -0.023368029 0.08493947 0.29838654 -0.08361779 0.37870425 0.35844937 -0.06718917 0.18398002 0.37305313 0.36649615 0.30807444 0.34908763 0.32721058 0.34641433 0.34206182 0.17073674 0.25090104 0.27241385 0.25563297 0.2829113 0.3739503 -0.20004484 0.45309764 0.13713118 -0.031197116 -0.13954313 -0.15228698 0.14501488 0.49118906 0.46892977 0.20166276 0.050789066 -0.20771617 -0.14336334 0.40723637 0.52617353 0.5971604 0.53993595 0.48982844 0.25280514 0.20406705 -0.025698774 0.45280677 0.55018455 0.612337 0.22161967 -0.13057712 -0.06560062 -0.092351206 0.0060024485 0.15031986 -0.005094409 0.16820846 0.2287776 0.23173177 0.08083517 0.14358306 0.26742724 0.21449193 0.40073657 0.4182845 0.44794685 0.3221797 0.27229702 0.46597138 0.46403003 0.295332 0.2166107 0.3012231 0.24083641 0.24907973 0.54427326 0.4708426 0.36381105 0.28837222 0.15845364 0.054345593 0.29810023 0.30621332 0.5352015 0.25459385 0.16268939 0.2006875 0.107663736 -0.008557622 0.10983163 0.18282253 0.10543451 0.28236902 0.22813132 0.04945217 0.057066105 0.26101896 0.34412295 0.29891744 0.36498958 0.3873626 0.23886628 0.18646093 0.36441728 0.15819922 -0.023224123 0.26114318 0.10993471 0.28252918 0.124544226 0.1176944 0.36009592 0.076080814 0.41955554 -0.017857071 -0.002716869 0.44956014 -0.15341803 0.198963 0.52160764 0.5045886 -0.01968482 0.06049078 0.39356863 0.4937955 0.5932814 0.57521975 -0.20465775 -0.045519263 0.5394943 0.58193386 -0.19857797 0.316051 0.047120534 0.17363982 0.08641727 0.017525926 0.25265908 0.011935525 -0.19133312 0.2064937 0.21432522 0.20165464 0.117232524 0.3635804 0.33625773 0.26994175 0.45197678 0.47045064 0.44682664 0.41932994 0.40842798 0.38118306 0.25964016 0.17176229 0.0026819557 0.52291846 0.537315 0.4714496 0.25274408 0.23534653 0.29455853 0.503496 0.5223754 0.13627295 0.39745793 0.14429605 -0.02355811 0.21628425 -0.15903771 -0.00022567809 0.0878084 0.1631767 0.26298004 0.29434967 0.08810474 0.2782267 0.1802229 0.15955602 0.098643795 0.121921964 0.22061113 0.2755029 0.1827842 0.22074106 0.31457436 0.34800512 0.2861942 0.33503744 0.10875512 0.111591965 0.24780357 0.28702515 0.15781015 0.3185842 0.34314942 0.07442605 0.37063295 0.062330686 0.47444564 0.4562596 0.0424765 -0.07828794 0.07277574 0.5094176 0.19611117 -0.009917289 0.4325797 0.5150268 0.2987007 0.009734038 0.033136006 -0.077788554 -0.08323488 0.31772184 -0.22988379 0.36709923 -0.12089808 0.33470482 0.22620577 -0.012306437 0.336429 0.29837027 0.027833477 0.17222902 0.38305146 0.38775563 0.46958166 0.45889354 0.36358327 0.33211643 0.28874758 0.43219844 0.45006403 0.3015437 0.22721809 0.07884284 0.23971733 0.4840879 0.48913532 0.45504743 0.36333293 0.15822656 0.3287511 0.5017086 0.49453133 0.4282756 0.29558736 0.037437964 0.21864742 -0.38804686 0.12935042 0.23555005 0.2755424 -0.03543611 0.2799886 0.15763399 0.057278924 0.08829954 0.24546388 -0.11566664 0.3916775 0.42107862 0.43767706 0.4483804 0.25550216 0.3820445 0.27549985 0.04835488 0.23841871 0.06673191 0.22549382 0.19343388 0.26964128 0.21339594 0.3218634 0.20078309 0.4008543 0.11481483 0.11831768 0.4012702 0.40198177 0.20062247 0.2964217 0.48027402 0.20287398 0.033171512 0.16284654 0.24103811 -0.15434936 -0.062786795 0.012330566 0.35516816 -0.13850687 -0.00036836416 0.41212982 -0.10733174 0.07777423 0.012861347 0.045169245 0.30786297 0.5677025 0.5774057 0.46974108 0.4120599 0.07744755 0.12655993 0.5830678 0.65106463 0.6438062 0.44755277 0.39252746 0.3162669 0.14655416 0.13238765 0.16271111 0.17978798 0.13925102 0.14558646 0.48529333 0.46328586 0.39019823 0.3349519 0.47928244 0.48560202 0.33164814 0.31655094 0.20930745 0.30314988 0.46212053 0.5218583 0.58480734 0.41951337 0.28491408 0.16270375 0.15891527 0.5283613 0.5606758 0.44934672 0.3794666 0.5069953 0.443239 0.40944198 0.14848453 0.24867426 0.31256294 0.035704054 0.23750032 0.16873755 -0.0637367 0.08198626 0.17069086 0.23031127 -0.051263556 0.10573497 0.29891622 0.14926091 0.018618923 0.09334783 0.21777034 0.21849483 0.2192677 0.39406508 0.34691578 0.4729581 0.5021734 0.41655862 0.498734 0.44395554 0.40055656 0.33089644 0.21433619 0.20643815 0.1866285 0.24709927 -0.14507392 0.2739076 0.26946822 -0.16399764 0.34083515 0.25926688 0.15251571 0.37205052 0.36641222 0.17483956 0.32582444 0.34325433 0.18229069 0.17038868 0.1928963 0.19452682 0.25248313 0.20218614 0.12907481 0.17882064 0.2294659 0.1368454 0.5185344 0.48681512 0.5236854 0.49117827 0.50684714 0.149244 0.61663055 0.61217684 0.5091237 0.50883985 0.09011084 0.09531337 0.11970748 0.36344853 0.67102027 0.6697494 0.6477896 0.4886161 0.44814396 0.35380012 0.1740556 0.18076783 0.12207554 0.6711763 0.69552 0.7052702 0.2834013 0.108521745 0.17260131 0.18588215 0.48216435 0.34732318 0.46155757 0.47377816 0.45740706 0.39494163 0.34574896 0.34028158 0.41451168 0.50301963 0.6012491 0.61099684 0.6125617 0.28469336 0.05199749 -0.004759297 0.16380686 0.49384436 0.37936556 0.26019755 0.07264655 0.24653769 0.07590299 0.16338804 0.033232093 0.11894666 0.01365301 -0.046110548 0.09915924 0.045677625 0.3434468 0.34220126 0.2887584 0.14455925 0.362169 0.44246298 0.47350353 0.35439888 0.5352001 0.55387676 0.5162876 0.48699874 0.50491834 0.5415952 0.50028235 0.48160642 0.41667193 0.50382227 0.41271722 0.15452646 -0.08808969 -0.25509846 0.2627335 0.27048796 0.18664011 -0.14929634 -0.1728571 0.268684 0.20083915 -0.14307526 -0.19285944 -0.17569287 0.3192193 0.00924159 -0.2028344 -0.1798175 -0.1623477 0.34717482 0.045358874 0.3076116 0.35148 0.14039598 0.18795353 0.15972196 0.13172156 0.17371568 0.07402441 -0.113848194 0.18412039 0.16812858 0.22948776 0.26169673 -0.3309598 0.26444763 0.32168517 0.19886345 0.011829063 -0.16640095 0.20607261 0.23481004 0.5202844 0.48300576 0.12806462 0.19929034 0.55833465 0.58677477 0.51258427 0.5465338 0.57376623 0.54069525 0.53409505 0.1061964 0.695662 0.6630876 0.4999203 0.4699328 0.3249232 0.7170936 0.7379177 0.7191244 0.08373535 0.23853217 0.2319886 0.26015604 0.30464697 0.42971748 0.34795338 0.29908228 0.30004993 0.50863975 0.5913934 0.6580078 0.6660271 0.3791981 0.3464812 0.24304625 0.6474099 0.6309054 0.21776234 0.25159472 0.5950