# vtk DataFile Version 2.0
Really cool data
ASCII
DATASET POLYDATA
POINTS 2682 float
24.190619 22.11903 -1.300988
24.22419 22.013428 -0.6828182
24.24453 22.222208 -0.18744873
24.226917 22.764389 -1.8841174
23.983152 22.658094 -1.3282573
23.90798 22.679258 -0.54520327
24.145832 22.71795 0.04978758
24.139938 23.380207 -1.7878495
23.874674 23.4201 -1.3351164
23.78059 23.395855 -0.5171838
24.069904 23.600351 0.12011132
24.036755 24.186249 -1.1720214
24.004475 24.160772 -0.5903523
24.163084 24.038292 0.121448785
24.31793 32.007492 -4.1910777
24.30056 32.059895 -3.5075796
24.11469 32.63761 -4.3037353
24.016443 32.689304 -3.5868514
24.16535 32.706352 -2.985891
24.306608 33.447136 -5.022152
24.043081 33.34923 -4.29608
24.001072 33.31538 -3.5511487
24.244331 33.338955 -2.9364543
24.339407 34.54087 -5.114706
24.23501 34.530506 -4.534258
24.165562 34.188118 -3.773587
24.40124 34.01017 -3.204431
24.411955 35.1116 -5.0156093
24.378157 35.135303 -4.564524
24.402267 34.97002 -4.046102
25.06153 21.442232 -1.1019694
25.022303 21.429129 -0.5366365
24.870653 22.045164 -1.9334733
24.765089 21.72537 -1.3428167
24.671148 21.649443 -0.5737462
24.708374 21.985611 0.11169362
24.677744 22.629456 -2.206203
24.653679 22.565588 0.4599578
24.882978 22.731056 0.6212975
24.680117 23.326008 -2.3495064
24.40752 23.268793 0.48318604
24.753056 23.434774 0.7986765
24.908068 24.25972 -2.1057138
24.701439 24.474539 0.33754134
25.01643 24.245228 0.7857369
25.21795 25.347988 -1.2283682
24.560043 24.81673 -0.5847891
25.231297 25.453789 0.083451286
25.248089 24.886436 0.8053518
25.2858 31.242687 -4.8954325
25.192793 31.146751 -4.5672116
25.120153 30.859755 -3.445623
25.185724 31.521374 -4.9409204
24.642702 31.727821 -4.2688117
24.517351 31.715181 -3.4721646
24.906069 31.614395 -2.8156586
24.785545 32.685043 -5.2443476
24.4326 32.461227 -2.8021617
25.039778 32.55302 -2.1001554
25.074263 33.739006 -5.9824553
24.56956 33.642487 -5.3320775
24.622402 33.431744 -2.511571
24.888033 33.25723 -2.1940272
24.905464 34.462658 -5.8428407
24.568502 34.617863 -5.499583
24.447058 34.76183 -3.857142
24.66149 34.28077 -2.902441
24.96466 35.25724 -5.801526
24.646542 35.45853 -5.2343087
24.523062 35.508972 -4.623394
24.844128 35.414974 -3.8580732
24.911417 35.860317 -5.1320815
24.749786 35.797092 -4.515002
24.87232 35.743046 -4.03261
25.378426 21.451172 -1.0265818
25.453114 21.406906 -0.69877875
25.390724 22.066471 -2.0784237
25.421547 21.588997 -1.4178579
25.541996 21.499777 -0.201568
25.518871 21.753113 0.162496
25.459177 22.894365 -2.607817
25.445105 22.464186 -2.41647
25.629255 22.82358 1.2180879
25.889967 23.120794 1.5874074
25.41437 23.364536 -2.635906
26.132887 23.634672 1.7176179
25.671955 24.303291 -2.4187038
25.9913 24.039694 1.6643361
25.733633 25.512291 -1.803113
25.571445 25.456049 0.57060516
26.023035 24.93925 1.4434962
25.61889 26.095272 -1.2906059
25.796719 26.465425 -0.81699586
25.681545 25.8757 0.34640825
26.218744 26.112118 1.1237218
26.32563 26.877825 0.34369832
25.870548 30.367271 -4.27854
26.16818 30.648903 -5.290705
25.434471 30.830925 -4.377899
25.614761 30.657946 -2.6598117
25.678726 30.898111 -2.1977792
26.118656 31.678373 -5.9987617
26.040438 31.354115 -5.6162667
25.831114 31.822737 -1.8450196
25.628922 32.92979 -6.1684966
26.227037 32.486973 -1.5428345
25.540508 33.523155 -6.3261833
25.575096 33.582077 -1.840837
25.786423 34.252853 -6.6139045
25.723 34.600002 -6.449656
25.581787 35.396458 -6.041464
25.29266 35.356464 -3.461562
25.75813 35.42233 -3.2675805
26.460907 35.976414 1.984877
25.305035 36.15187 -5.0367756
25.641129 35.90511 -3.8817623
26.485357 36.466084 1.697318
26.463089 36.36939 1.9906963
25.909927 21.873846 -1.745253
26.221312 21.852827 -1.4426398
26.596985 21.655268 -0.7071136
26.663864 22.004137 0.7584374
26.331625 22.773315 -2.2729475
26.46906 22.977983 1.5700916
26.14048 23.35716 -2.5971847
26.256296 23.667902 -2.4956818
26.421778 23.302853 1.7185965
26.640728 24.06356 -2.4958715
26.670221 24.865631 1.7446914
26.493673 25.510921 -2.2293086
26.62267 26.122889 1.5938863
27.187183 26.13545 2.0780454
26.606546 27.075424 -1.0885807
26.395008 27.023657 -0.66488767
26.751482 27.646658 0.07704859
27.158949 27.410448 1.2193676
27.402996 28.84775 -4.1272354
27.19633 28.839682 -1.0144256
27.169434 28.173496 0.56635034
26.446716 30.17154 -4.6416516
26.286728 30.070604 -2.7481422
27.343037 30.765306 -7.116574
26.854187 30.575506 -1.4736233
27.048817 30.67779 -1.2279111
27.117954 31.846 -7.1825495
26.881172 32.42772 -7.151511
26.75183 32.30004 -1.2292786
27.201502 33.664177 -7.3972955
26.79782 32.984333 -1.3571053
27.297262 33.848804 0.6294943
27.279408 33.366974 1.0307167
26.978674 34.72634 1.5669011
27.262024 34.50178 2.1947963
26.82655 35.509945 0.65682274
26.587688 35.66662 1.4219137
26.664324 35.809532 2.3595762
26.924608 35.87285 2.8324215
26.10762 35.707397 -5.9001703
26.501102 36.108723 -3.683578
26.712072 36.520084 0.6594415
26.525928 36.518646 1.8451827
26.649157 36.508884 2.308389
27.003204 36.52091 2.8539593
27.392738 37.84795 -7.5111
27.44583 37.414864 -6.508169
27.215693 38.130318 -5.180768
26.89691 37.22617 0.8786645
26.77944 37.225864 1.5244533
26.91054 37.13947 2.3318365
27.176731 37.0235 2.7820935
27.271343 38.917297 -8.107664
27.284319 38.46138 -7.5446315
26.934324 38.91292 -6.409187
26.83252 39.02773 -5.51732
26.894505 38.997498 -4.9575114
27.196264 37.77923 1.421973
27.259542 37.697548 2.088544
27.430763 39.28206 -8.323706
27.170801 39.37694 -7.265368
26.938942 39.473225 -6.24845
26.855679 39.520363 -5.60398
27.032236 39.531193 -4.85713
27.360954 39.78036 -7.5377088
27.144201 39.96816 -6.2646327
27.029446 39.9521 -5.4110923
27.106766 39.903397 -4.9783983
28.348269 21.0877 1.445934
27.304573 22.214699 -1.2697909
27.418327 21.973345 -0.5003998
28.142666 21.677116 1.3039324
26.794605 22.508305 -1.9271859
27.325178 22.465063 -1.3590714
27.292976 23.736826 1.7778093
27.017235 24.351343 -2.4702437
27.408333 24.561838 2.2250257
27.365854 25.324898 -2.553834
27.754238 25.373909 2.3333714
27.871307 27.85167 -4.0616736
27.672894 28.09624 -3.1893964
28.049683 27.039509 2.484911
28.37109 29.059217 -6.9794054
28.284643 28.721014 -6.5433273
27.76069 28.712704 -5.306134
27.554173 28.677195 0.2217735
27.769367 28.435896 1.4307829
27.797474 28.076088 1.7962933
28.35921 28.644789 4.192504
28.18061 28.83762 6.32562
28.056011 29.96916 -7.5772896
27.753208 29.775707 -0.47342098
27.934053 29.508213 0.33106261
28.14232 29.254984 1.5537313
28.095663 29.676815 4.677779
27.90306 29.628803 5.660544
27.975142 29.627205 6.400614
28.159658 29.715307 6.830471
28.124672 31.10924 -8.87832
27.914017 30.77676 -8.156339
27.68371 30.256433 -7.197719
28.128136 30.843687 0.5133336
28.231623 30.95724 1.6335837
28.182213 30.181126 4.632587
28.077707 30.483252 5.513789
28.049845 30.23611 6.247235
28.293896 30.093542 6.8929224
28.047098 31.738342 -9.04585
27.789673 31.32802 -8.536098
27.482489 31.163239 -7.214007
27.422861 31.119354 -0.87030697
27.688866 31.900202 -0.09641174
28.050432 32.00249 1.0965148
28.2733 30.791868 4.7911296
28.336933 30.96059 5.7242107
28.343542 30.92515 6.101923
28.002079 32.292576 -8.994176
27.546312 32.128517 -8.308344
27.655329 32.973106 0.96315676
27.546083 33.081867 1.3342597
27.805302 32.864624 2.1780212
27.603529 33.77108 2.641961
27.990206 33.818024 2.89492
28.078274 33.89727 -7.852854
27.610172 34.167587 2.6729813
27.603285 34.766087 2.8612826
27.676256 35.589687 -6.6975074
27.704739 35.638676 3.2338517
27.952194 36.49526 -6.719704
28.2455 36.310318 -2.1080582
27.705942 36.33539 -0.4052838
27.651922 36.606346 3.151265
28.068321 37.985313 -10.3252735
27.924232 37.850582 -9.294724
27.708654 37.852547 -8.427027
28.042177 37.198605 -3.0500135
27.725595 37.419693 0.23337992
27.459414 37.54212 2.5350795
27.58609 37.260185 2.8410149
28.017532 38.51433 -11.062946
27.901636 38.552246 -10.479415
27.624693 38.921017 -9.131561
27.580187 38.150803 -4.658434
27.90148 38.053787 0.9860544
27.805975 38.137268 1.629604
27.758427 37.93986 2.204887
28.164474 39.76108 -14.360517
28.317896 39.525726 -13.51947
27.879868 39.31281 -10.532697
27.772482 39.469345 -9.422026
27.390978 39.486015 -4.4387546
28.143406 40.548454 -15.042408
28.004162 40.571377 -14.592076
28.035349 40.839336 -13.45963
28.144892 40.27692 -13.039044
28.074282 40.3975 -11.3256035
28.27557 40.56149 -9.499055
27.891438 40.35253 -7.4366045
27.631933 40.51898 -6.39542
27.537128 40.47576 -5.5775886
27.648312 40.176174 -4.753051
28.295206 41.387516 -15.094881
28.084284 41.196243 -14.475021
28.075539 41.132854 -13.678175
28.237934 41.105507 -12.42512
28.3596 41.473392 -11.485217
28.455772 40.846798 -10.524211
28.118162 40.862473 -6.277807
27.822727 40.637714 -5.6066065
28.070377 40.625465 -5.08882
28.37596 41.990204 -14.287389
28.358223 41.910816 -13.760473
29.202507 20.672087 0.9026742
28.88754 20.68945 1.6035557
28.91738 20.8187 2.3986166
29.113308 21.092152 3.118832
28.239176 22.260427 -0.22213437
29.0609 21.406416 0.4766942
28.832798 21.587542 3.056419
29.231071 21.686865 3.9320474
28.025938 22.868807 -1.2652217
28.827002 22.374834 0.093813926
28.660769 22.447681 2.8732667
29.167416 22.613182 4.353262
28.140852 24.074362 -2.0929756
28.541346 23.69682 -1.5736841
29.378187 24.49069 3.6794548
29.165829 25.852392 -6.7965317
29.062227 26.046663 -5.74936
29.239021 25.671066 -4.4417443
28.891151 25.529284 -2.2466156
29.331465 26.563204 -7.8244143
29.28764 26.5581 -7.684237
28.856773 26.869764 -6.771736
28.67168 26.568602 -5.4720917
28.569942 26.53931 -4.2247944
28.880243 26.388908 2.942294
29.306448 26.454924 5.539177
29.16143 27.17016 -7.553364
28.588247 27.579283 -6.3700824
28.938019 27.71893 4.9004574
28.923248 27.641079 6.4451466
29.011663 29.013882 -7.731175
28.794323 28.78052 -7.20361
28.631876 28.352142 6.62823
28.710155 28.876444 7.247735
28.68211 29.903805 -8.251255
28.444668 29.54218 -7.559614
28.54606 29.658388 3.0942473
28.50572 29.443478 7.2225757
29.311094 29.439947 7.9613867
28.39205 30.879282 -8.813883
28.529861 30.793861 2.4661648
28.884932 30.222248 3.401976
[...]
POINT_DATA 2682
SCALARS features_00 float 1
LOOKUP_TABLE default
0.9299025 0.90831745 0.8828436 0.95057976 0.96783715 0.9210566 0.8441802 0.9698865 0.97403836 0.8843288 0.7558698 0.8774728 0.77545726 0.68945116 0.5783377 0.6007855 0.61923605 0.62122476 0.5978679 0.60205436 0.6316378 0.6162584 0.5897072 0.6099324 0.6076207 0.5969384 0.57868314 0.61300695 0.6070992 0.5919528 0.8393947 0.83924174 0.87503994 0.8720716 0.86878717 0.84144235 0.9016591 0.7776326 0.72715515 0.87358546 0.7215781 0.6412594 0.7944083 0.57653725 0.5400554 0.61803436 0.6184248 0.46091077 0.4644063 0.3782379 0.41446447 0.5228838 0.4003385 0.53566265 0.57980585 0.54574853 0.5032554 0.57447284 0.4631072 0.49816582 0.5712306 0.5450133 0.4970626 0.56688404 0.6000141 0.58628213 0.5456518 0.60220027 0.6171328 0.6043359 0.57083315 0.6266885 0.5947193 0.57267624 0.80937964 0.8021149 0.8162248 0.7998092 0.78884834 0.7873221 0.7790732 0.80515575 0.5964407 0.5148192 0.7446987 0.44768423 0.6229971 0.43710726 0.6019746 0.40409338 0.39159542 0.51513475 0.4271788 0.37805822 0.30340207 0.2808079 0.35077155 0.21079063 0.39309686 0.4647923 0.3680122 0.18704961 0.22782815 0.30122775 0.3269521 0.23746957 0.39427018 0.38364786 0.3873478 0.44112492 0.55921054 0.53025705 0.47546786 0.6058413 0.63446224 0.5298961 0.637873 0.63912493 0.7373049 0.68876666 0.64483976 0.5945147 0.6595829 0.45503432 0.655285 0.62005025 0.435464 0.55533826 0.3484612 0.5570277 0.27823055 0.22571054 0.26880762 0.30106324 0.15014118 0.16111201 0.036931146 -0.10982067 0.037229117 0.21936554 0.3666065 0.17868155 0.010617226 -0.073893055 0.21419239 0.21849637 0.07695356 0.21584353 0.12486717 0.21895695 0.20723593 0.4458879 0.4348421 0.539967 0.5599593 0.59159034 0.59548724 0.5042836 0.33439884 0.6479068 0.6453558 0.6498103 0.6457013 0.26161906 0.27727965 0.52843356 0.6645336 0.66807294 0.67375493 0.66760606 0.32158065 0.32515064 0.47655654 0.5579158 0.58215714 0.67096853 0.6796727 0.31653526 0.426331 0.53268564 0.57519805 0.59666365 0.4004131 0.5454562 0.58555067 0.5910549 0.47626075 0.4341745 0.38323694 0.41840163 0.58599156 0.4202945 0.30498046 0.5029473 0.2766369 0.44316465 0.16512546 0.1236244 0.064080834 0.12222996 0.0897402 0.057109654 0.062941805 -0.05318932 0.0046782205 0.06552674 0.33507782 0.48286694 0.19891486 -0.26047057 -0.18255344 -0.17134914 0.39894485 0.5233414 0.5253868 0.5065932 0.3237301 0.2744724 0.17924328 -0.2814623 -0.23929374 0.3827076 0.4802351 0.52384746 0.5058311 0.3523411 0.31509697 0.21512023 -0.17599267 -0.25767294 -0.12143488 0.38710523 0.451766 0.47480845 0.36777854 0.34013873 0.101818666 0.18472348 0.20531559 0.36006725 0.34757465 0.21971232 0.39863667 0.45774436 -0.17000465 0.55472445 -0.045212638 -0.32755 0.44481575 0.63829505 0.21921195 0.24372469 0.24652635 -0.14160055 0.4944287 0.6704388 0.65741694 0.23061058 0.25600204 0.30055973 0.53445303 0.58507997 0.6516448 0.65715253 0.5012888 0.42913118 0.29290646 0.2841291 0.58061874 0.4977065 0.49029487 0.41934866 0.38816515 0.22969392 0.15311247 0.3926913 0.5198711 0.5603007 0.55217844 0.44222987 0.44875848 0.42103478 0.2759499 0.13385417 0.09945999 0.48162836 0.5385754 0.5171015 0.37407127 0.3567308 0.49338615 0.5034836 0.46762016 0.40538028 0.13904631 0.38329166 0.40558773 0.3442157 0.24624646 0.10610246 0.3617867 0.3247872 0.32352173 0.23516484 -0.09705028 0.43145728 0.3577664 0.27363136 -0.12378197 0.35339588 0.35405287 0.28507733 0.29541403 0.23165321 -0.13838388 0.058594555 0.24462408 0.15413257 0.28461057 0.26347226 0.093397245 0.074243635 0.38546002 0.40948245 0.22729902 0.16572186 0.009968802 0.46336818 0.3479676 0.3103063 -0.15548706 0.16142379 0.46944094 0.34401923 0.28511655 0.45095384 0.43149537 0.3459765 0.1100018 0.25302327 0.3300325 0.35672784 0.23865905 0.13984549 0.1200315 0.15082867 0.33588582 0.11299622 0.09681043 0.4652601 0.20842172 0.116684325 0.18125445 0.16100675 0.180069 0.5414303 0.4395995 0.4578622 0.19073102 0.20708263 0.39091378 0.49323642 0.5833965 0.46559438 0.48897952 0.4066652 0.4896858 0.49915177 0.13687128 0.15512939 0.46703136 0.440044 0.41722637 0.07239451 0.24830139 0.31803322 0.45301697 0.44483763 0.36491248 0.29547796 0.3299353 0.17131191 0.19330524 0.31195363 0.32194734 0.31848654 0.5224685 0.5254136 0.49873942 0.5028312 0.46593878 0.38010103 0.3575185 0.4073391 0.3587489 0.3327812 0.30975223 0.31317297 0.0008710325 0.28713885 0.45906442 0.45788023 0.35635546 0.31010556 -0.19473407 0.41775247 0.45972854 0.42985064 0.44993463 0.38855672 0.13778558 -0.19669956 -0.011453319 0.064865716 0.22593585 0.38206363 0.4206307 0.34935462 0.081315964 0.013937961 0.23645166 0.2833509 0.120625004 0.1994198 0.13641247 0.2948467 0.09738911 0.22060236 0.13185221 0.23999631 0.34838715 0.22582938 0.27421755 0.22431004 0.38332015 0.033224493 0.21767837 0.34058303 0.21190116 0.062265404 0.37885523 0.33704412 0.2280449 -0.018895283 0.38272464 0.32653823 0.1109242 -0.14893153 0.23070726 0.4435709 0.28141746 0.03254558 0.15989736 0.5211747 0.43831497 0.36516216 0.46937805 0.50972605 0.46326327 0.06389454 0.05349587 0.3157991 0.46590048 0.10107096 0.06009672 0.18436664 0.44765475 0.3439029 0.22588047 -0.034829915 0.11558224 0.24608898 0.14681984 0.26878113 0.2575139 0.16870835 0.19717392 0.25188076 0.7018398 0.7249731 0.58889675 0.3479492 0.25570384 0.17043349 0.37054348 0.3941623 0.6491158 0.5006064 0.40894115 0.30080456 0.25497854 0.35533118 0.37851894 0.38867477 0.51465696 0.4526804 0.36068857 0.3578667 0.38632965 0.55542815 0.553581 0.5427542 0.48739833 0.41553342 0.50715744 0.5456063 0.36757988 0.32099822 0.31421176 0.31691977 0.27630982 0.2352081 0.4831895 0.46571988 0.08737737 0.049044758 0.5295489 0.5215783 0.51018274 0.37241662 0.44379467 0.4428203 0.27392474 -0.009924613 -0.128146 0.049771316 0.471151 0.47278804 0.41508317 0.41856056 0.41340202 0.3675252 0.33748677 0.17260379 0.31944337 0.30180025 -0.0444252 0.21324974 0.25424173 -0.026548669 0.034665313 0.13832486 0.2288713 0.2540453 0.11174467 0.023365531 0.02023387 -0.049839213 0.04324176 -0.14019483 0.026280869 0.30955195 0.26603746 -0.17202002 -0.15336417 0.53916353 0.59011364 0.39763522 0.36676115 -0.041247446 -0.086388975 0.5808691 0.6113727 0.42233813 -0.095896564 0.041076124 0.62278605 0.4115778 0.13483614 0.12638485 0.5178357 0.5053112 -0.1953136 -0.04565949 0.15325212 0.18379699 0.5249281 0.5516332 -0.22025307 -0.12298849 0.5012323 0.001996439 -0.033694383 0.06943417 0.10427891 0.6616204 0.5597426 0.036080495 -0.19219601 0.11087497 0.16205424 0.21765259 0.24388829 0.22342525 0.7402692 0.1903291 0.20757627 0.73082376 0.39728642 0.71323085 0.6589705 0.40863335 0.6407206 0.5289968 0.48989773 0.45500267 0.39559752 0.4143862 0.42117754 0.5568726 0.5183402 0.52989507 0.50051194 0.48439455 0.4162858 0.4240414 0.5669743 0.56618416 0.55111766 0.4962783 0.5499853 0.35492435 0.32970625 0.27994433 0.5311704 0.2659998 0.2156272 0.53328395 0.28047884 0.1550799 0.38764957 0.50936985 0.55548954 0.5702004 0.5735855 0.3859002 0.429968 0.18300635 0.19236584 0.5521012 0.5383884 0.33815002 0.3979493 0.23556016 0.48298118 0.4565999 0.28482574 0.33652166 0.43117124 0.28615338 0.19520804 0.29568523 0.26689565 0.27325785 0.32898587 -0.0042685643 0.33815426 0.44984797 0.011327352 0.26358998 0.33407405 0.4266261 0.059694488 0.23401795 0.010957409 -0.146686 -0.13954633 -0.1537148 -0.26603246 -0.17049983 -0.0014602635 0.18837965 0.42845255 0.5775712 0.5984885 0.35853547 -0.14537188 -0.072115555 0.018834556 0.34349534 0.4805687 0.5998717 0.607256 0.47158265 -0.0024922825 0.02713567 0.000944674 0.042493194 0.31776887 0.6262234 0.6272144 0.45163673 0.0461645 0.100206345 0.547119 0.6404908 0.6628914 0.6511136 0.44965118 0.31988996 0.09703189 0.094701014 0.06726128 0.095594935 0.533974 0.6477402 0.6695032 0.53514194 0.49324125 0.18351775 0.14541356 0.59020245 0.63483644 0.65700924 0.5216058 0.53199196 -0.09480713 0.028794508 0.20099857 0.19182822 0.4457838 0.027756233 0.07338395 0.14194345 0.35395426 0.022010803 0.6449425 -0.04331082 0.132116 0.14777878 0.04824026 0.33991975 0.4182012 0.72697574 -0.040451493 -0.047494963 -0.07632417 0.08089023 0.13324328 0.14118496 0.09978767 0.09353663 0.31513974 0.44605666 0.514039 0.73242664 0.72433394 0.35204202 0.09095728 0.12331131 0.13293317 0.6995268 0.61518973 0.35721487 0.63815844 0.43852532 0.36263645 0.57831204 0.5707439 0.54969054 0.532872 0.45496875 0.4567203 0.55624956 0.5495542 0.5653053 0.5411734 0.33756924 0.55765855 0.54687476 0.42140612 0.2864877 0.27708656 0.51911604 0.24713083 0.1937279 0.47834474 0.55860007 0.574667 0.21261068 0.27115703 0.58028066 0.5782846 0.57091403 0.5006453 0.41261184 0.3359772 0.3373952 0.3289883 0.3057295 0.5583628 0.53740096 0.45621815 0.3189392 0.46869 0.5650065 0.49691877 0.44080466 0.40901363 0.60802805 0.3739476 0.6338965 0.6536337 0.2058812 0.53152174 0.6232207 0.15646309 0.38376912 0.49965686 0.57111764 0.1534014 0.37123096 0.41342473 0.22254033 0.15031737 -0.008205064 0.58804417 0.6186551 0.3508039 0.25879234 0.63338983 0.22751482 0.07375239 0.14911692 0.6337014 0.61064386 0.49963373 0.45089418 0.11105038 0.26810074 0.49050093 0.58510035 0.6267848 0.49681577 0.19029157 0.46041393 0.47454357 0.18584028 0.3399539 0.62137866 0.47969276 0.40513954 0.48212147 0.55100304 0.690318 -0.023317821 -0.039461743 0.3425982 0.532623 0.6003881 0.6070329 0.69186723 -0.1852982 0.09355733 -0.019209154 0.078411594 0.07739986 0.29425538 0.5435488 0.6213138 0.6513319 0.6532594 0.6142732 0.57398695 0.31385055 0.27863738 0.22997588 0.33969495 0.2866794 0.23381662 0.06924759 0.019801453 0.0630514 0.577515 0.668386 0.687343 0.51193875 0.42329648 0.35765982 0.41551942 0.42535436 0.36548847 0.55988455 0.5453188 0.547316 0.50594926 0.45774853 0.5722822 0.55474156 0.5185989 0.46724498 0.5354903 0.542189 0.5405171 0.5752145 0.5634955 0.5215383 0.47930747 0.35629407 0.19101635 0.19560696 0.23347887 0.26423228 0.25496298 0.3439811 0.22852078 0.19379161 0.45696422 0.5654896 0.20764719 0.5509504 0.54909575 0.6349509 0.59101117 0.52408755 0.41069645 0.33524832 0.51939857 0.63197106 0.6287349 0.20805392 0.43642 0.5934841 0.6085773 -0.26061583 0.45408604 0.5538869 0.546226 0.4255711 0.46282426 0.6675523 0.7167438 0.35864824 0.6907299 0.6388489 0.23804636 0.18740106 0.49469405 0.5681628 0.27398 0.3459055 0.34057677 0.28716764 0.25081733 0.46586436 0.20345466 0.05872921 0.45347008 0.11576456 0.52235895 0.34960058 0.15577172 -0.040750563 0.25369346 0.46578482 0.510133 0.5425602 0.46309024 0.38228524 0.122776486 0.23989569 0.36587098 0.20062505 0.4235968 0.2767105 0.5314522 0.63301516 0.586799 -0.05060796 0.64662844 0.62250805 0.56566334 0.14718427 0.12023852 0.70388186 0.69072944 0.49657252 0.47953096 0.2614804 0.003177315 0.07336621 0.14564377 0.23661983 0.5996975 0.68109983 0.7208071 0.49010003 0.47645235 0.40151966 0.49261892 0.49428013 0.18823405 0.05658681 0.16517468 0.5101942 0.5170324 0.51573575 0.5088465 0.51893276 0.52114946 0.50754046 0.5643393 0.57514244 0.44849005 0.31738204 0.52897114 0.52313566 0.58429664 0.5861492 0.5803429 0.53572315 0.5876804 0.58469427 0.10876493 0.14107832 0.2245267 0.254175 0.23341489 0.22319269 0.45260674 0.2170468 0.1747885 0.10524191 0.083097614 -0.17339897 0.42672524 0.48798192 0.49902266 0.67387855 0.63994306 0.567258 0.4670316 0.21112794 0.19678456 0.41526422 0.40586132 0.6425043 0.6583512 -0.053364918 0.2563898 0.6099078 0.6260121 -0.30352303 0.58037674 0.5254901 0.70032096 0.4467719 0.4584943 0.7197486 0.76276165 0.26710513 0.7782526 0.1723161 0.23911424 0.7308296 0.59932566 0.30391484 0.21562353 0.19466995 0.3593198 0.080717325 0.16243422 0.2726373 -0.1625402 -0.18096735 0.2704545 0.020001624 0.30721363 -0.024336193 -0.05802516 0.4379675 0.33902907 0.027559372 0.41747752 0.44029096 0.14035787 0.13257813 0.46210694 0.54343385 0.52142835 0.5543181 0.5357814 0.6823268 0.5358145 0.5254209 -0.3567388 0.7122834 0.4940073 0.3314938 0.6640655 0.686606 0.47463512 0.49713433 0.507303 0.4839248 0.42887533 0.42709062 0.30450776 0.3297516 0.50575 0.49854708 0.4329381 0.4775965 0.33126938 0.49777737 0.5338912 0.46436718 0.4218414 0.55889785 0.55059046 0.52856314 0.33223 0.25016415 0.26310617 0.23807308 0.23279044 0.19955373 0.23020321 0.13813442 -0.03797652 0.1986835 0.3200233 0.3806634 0.664732 0.61699075 0.13491079 0.29978365 0.3477779 0.6250117 0.6420169 -0.33841646 0.29993546 0.6065852 0.58200026 0.5610706 0.55699116 0.44237143 0.59924644 0.69550604 0.75230014 0.32330224 0.78593874 0.72946095 0.7553551 0.33587986 0.44566995 0.64615333 0.3719712 0.34094715 -0.052504547 0.12782909 0.12113789 0.16709758 0.22051004 0.08961707 0.09681052 0.3207273 0.18199039 -0.60645545 -0.20472991 0.012505442 0.21349367 0.3724392 0.40972126 -0.04109618 0.42589393 0.14569527 0.36719558 0.52548105 0.48375088 0.05217813 0.5865252 0.49251404 0.28541064 -0.071687065 0.6415941 0.6849346 0.48770916 0.42935687 0.16721547 0.25529584 0.43189937 0.60118395 0.34347707 0.31118888 0.26028728 0.112008944 0.30204543 0.30285922 0.32491162 0.28015375 0.3792402 0.28125408 0.31488347 0.42898586 0.45270115 0.3354298 0.39326808 0.36707452 0.28295878 0.24350068 0.30034077 0.25592268 0.2775513 0.07527705 0.26050544 0.3708812 0.06315732 0.11454341 0.06820412 0.22595762 0.23563293 0.54928774 0.3898464 0.30122992 0.27640706 0.08496961 0.17692845 0.56041044 0.5177053 0.22740468 0.16447149 0.52169675 0.0087395795 0.3946613 0.28966516 0.508384 0.60375667 0.6284275 0.6019633 0.70275515 0.23813984 0.600158 0.35409898 0.38187236 0.3691186 0.38055462 0.34543186 0.16268778 0.276819 0.16814886 0.16597214 0.12662877 0.124282114 0.34251887 0.15819299 -0.40971598 -0.2957628 -0.05472435 0.43193546 0.41206026 0.19740109 -0.17479575 0.37041563 0.43295026 0.45588702 0.47438857 0.48624554 0.4749884 0.21809801 0.5196358 0.061459318 0.07002964 0.1896599 0.41470182 0.53433216 0.19425534 0.07994685 0.057303835 0.11711685 0.030612119 0.26998168 0.16440964 -0.06804443 -0.03676881 0.2485061 0.2732234 0.19858363 0.37349802 0.35641173 0.4155328 0.40886617 0.351426 0.3369971 0.26035553 0.27225706 0.2991351 0.52228206 0.49450913 0.021696784 0.33797443 0.5662261 0.45969233 0.3994608 0.30157265 -0.23028773 0.4329939 0.12653741 0.063851275 0.2356286 0.046464745 0.10682012 0.30628115 0.34081393 0.29719165 0.3542244 0.30358174 0.31292334 0.27110744 0.18178847 -0.029914677 0.17292574 0.13753608 -0.0049991477 0.28833348 0.02208341 0.4202817 0.076444656 -0.16773957 -0.11846629 0.2624269 0.45722753 0.43665028 0.07946685 -0.09764547 0.04239192 0.51692724 0.4779591 0.08043915 0.051849686 0.0050735027 0.41313088 0.5008346 0.5351867 0.117489584 0.24059922 0.26570824 -0.10501365 -0.13899273 0.24126214 0.037958525 0.02877672 -0.11546375 0.058321364 -0.035420686 0.2458592 0.2129568 0.3595711 0.36977082 0.35763845 0.38858402 0.38909292 0.3361621 0.38780853 0.35514736 0.36583292 0.1707566 0.25001174 0.57939 0.54875684 0.5164023 0.42164037 0.19180916 0.2641204 0.3153555 0.30434328 0.57968146 0.25567788 0.25411114 0.5303062 0.23266622 0.18250439 0.17639446 0.084466845 0.012222258 0.10279395 0.15353326 -0.20017573 0.033570126 0.20352635 0.20338115 0.16665913 0.2523813 0.29370365 0.17182843 0.23155719 0.29221818 0.29083967 0.14798859 0.19489753 0.045952898 0.16487423 0.05763396 0.19065432 0.08379493 0.27803007 0.38449073 0.07170999 0.39570084 0.039419565 0.43813482 0.4010219 0.15704116 0.054573834 0.004816465 -0.001194112 0.22300476 0.52228034 0.4745319 0.22419903 -0.25700128 0.07304411 0.025078416 0.52157485 0.27881444 -0.029217051 -0.015701592 0.3267219 -0.03588111 0.23742095 0.015916873 0.06519633 -0.08690807 0.16806534 0.013927139 0.09985072 0.30455554 0.3518095 0.34082025 0.26142108 0.3792882 0.39783356 0.38149825 0.4542458 0.4554894 0.4017436 0.36788723 0.43984404 0.5592942 0.5262719 0.4550525 0.29714727 0.21245785 -0.039568275 0.14355583 0.5497547 0.20373905 0.4466659 0.16174571 0.3052709 -0.53696823 0.016094089 0.046858773 0.05039089 0.11584349 0.19206238 -0.052260194 0.24504958 0.24373169 -0.08029211 0.23378241 0.077255614 0.20272565 0.017078139 0.26728648 0.12268137 0.3485489 0.26483265 0.34296492 0.26976088 0.3084706 0.15106496 0.17752823 0.16737725 0.19100972 0.25762776 0.19282499 0.3142591 0.18685059 0.36793217 0.101552755 0.39398372 0.38426828 -0.017506056 0.48498178 0.3869032 0.24703369 0.046098724 0.0064797513 0.42293146 0.2967904 0.04761169 0.055755742 0.3144018 0.30002192 -0.31214872 -0.05097433 0.051078692 0.018241039 0.28235844 -0.19612591 -0.040683545 -0.07899675 0.36711016 0.36937743 0.054769866 0.38447937 0.30891067 0.113318704 0.35476646 0.19100887 0.14839157 0.35532814 0.37097666 0.4716308 0.4718843 0.47029877 0.36906806 0.3011591 0.24887525 0.37910256 0.20845312 0.23961212 0.13931018 0.2703364 0.53894675 0.490929 0.39284855 0.30861038 0.08653958 0.5212885 0.52707195 0.43576235 0.29051664 0.31837982 -0.23248418 0.18120065 -0.2963802 0.044432893 0.17804165 0.20424181 0.25668776 0.2600274 -0.056684624 0.26525444 0.26415843 0.15093699 0.04275492 0.20069176 0.25928062 0.22640854 0.0032458901 0.124197 0.3847071 -0.016881034 0.22241916 0.45126146 0.4428508 0.3649215 0.050880104 0.08644752 0.10124618 0.21006826 0.18528639 0.27821264 0.2290316 0.34551322 0.15194398 0.37530893 0.38887385 0.19152074 0.28451514 0.08672567 0.29384032 0.2536964 0.097892 0.019713871 0.44291705 0.50727564 0.41917902 0.47233534 -0.03316465 0.44534248 0.5680902 0.6019658 0.60140705 0.47243887 0.45211062 0.09254639 0.093897775 0.6105311 0.64829564 0.64230144 0.45868024 0.43629092 0.3081885 0.13336363 0.08967004 0.09707192 0.10463899 0.22046456 0.1114658 0.49783587 0.4776711 0.420293 0.30117017 0.2619396 0.2738941 0.28227895 0.48006046 0.49582833 0.26020795 0.2920991 0.36062682 0.46177536 0.45292246 0.37751025 0.2111837 0.48505104 0.4288047 0.34121597 0.2590984 0.13329983 0.52201873 0.39290047 0.3968139 0.2132118 0.2733543 0.27597448 -0.15293261 -0.14742091 0.2106758 -0.26006365 0.11453487 0.27657482 -0.021911487 0.15291506 0.16673964 0.12270041 0.17178884 0.21322545 0.29115438 0.2805103 0.3850027 0.31892937 0.43510348 0.46638042 0.49622363 0.529016 0.46606886 0.39709038 0.39864767 -0.42758995 -0.0051928386 0.29765633 0.3158252 -0.49102196 -0.35228792 0.18759727 0.299925 -0.17479965 -0.1837456 -0.2862215 0.25293404 0.23935798 0.35584116 0.17424552 0.07373797 0.40463448 0.13407509 0.11575948 0.38456506 0.40414768 0.24106945 0.23039322 0.38980913 0.25411004 -0.43728775 0.2327831 -0.19169235 0.25684234 0.2973636 0.108380236 0.23431727 0.47303566 0.13993818 0.4905404 0.47452408 0.5152353 0.5220268 0.030259319 0.33521235 0.61574006 0.5990643 0.5012829 0.48863384 0.13358851 0.12541746 0.37331706 0.50371677 0.56977576 0.65897965 0.65684116 0.6319432 0.48196566 0.4614254 0.42369288 0.080951825 0.14725228 0.6343536 0.67788684 0.67836905 0.20507932 0.15948817 0.13575955 0.11232209 0.105680406 0.412593 0.33074075 0.26979288 0.3442285 0.34960008 0.43593013 0.534315 0.45592648 0.42503542 0.3491368 0.27831808 0.30001903 0.5197894 0.62872005 0.33285925 0.330437 0.61083806 0.32892582 -0.060501568 0.030687388 0.45261738 0.3046388 0.312787 0.2187958 0.1369391 0.19417018 0.07562433 0.17583437 0.056602407 -0.026724685 0.24031477 0.34695712 0.3451533 0.22173378 0.45025212 0.35847414 0.27134162 0.46710232 0.5295135 0.46920988 0.4462391 0.5511825 0.46833658 0.42694408 0.3062527 0.5395912 0.0068843532 0.2796402 -0.23124677 -0.11363236 -0.12139717 -0.012460083 0.31393176 0.008194983 0.29215437 0.23213896 -0.24785341 0.20090824 0.2524255 0.19520631 0.060579646 0.025640711 -0.15758654 0.37034482 -0.023603803 -0.054847095 -0.2219154 -0.18964452 0.34251922 0.39342886 0.09249776 0.041825958 -0.017807093 -0.1613369 0.3754414 0.19067919 0.15416095 0.10722992 0.086857975 -0.10511468 0.31086513 0.22859105 0.16479722 0.026001632 -0.24298334 -0.36629587 -0.21831608 0.20859663 0.22349255 -0.27224714 0.2950744 0.4496432 0.09586978 -0.061081477 0.23983194 0.26556632 0.5165076 0.5030864 0.21927014 0.5268322 0.5460266 0.43458733 0.5320977 0.5500498 0.5737565 0.52036846 0.5031743 0.05777812 0.18304926 0.6680883 0.6356615 0.4901296 0.4805284 0.4265023 0.09043844 0.6957263 0.7070488 0.6903093 0.22157148 0.25334123 0.4975487 0.5724