# vtk DataFile Version 2.0
Really cool data
ASCII
DATASET POLYDATA
POINTS 7810 float
28.375956 55.210194 3.7753577
28.359715 55.17704 3.9799602
28.373188 55.738888 2.9866512
28.209574 55.69551 3.6223893
28.213604 55.738842 4.313272
28.388515 55.90424 4.7639256
28.339367 56.19343 2.9391427
28.156593 56.38173 3.6852663
28.17431 56.32396 4.314675
28.371605 56.631 4.958055
28.357248 57.045155 3.5544527
28.357338 57.19109 4.5309906
29.288826 54.305515 3.927853
28.939697 54.96782 2.8620598
28.801006 54.80193 3.6217763
28.773005 54.910976 4.260648
29.04748 55.050774 5.0148897
29.078104 55.585335 2.1936526
28.662447 55.585358 2.672907
28.443058 55.3787 4.439835
28.903788 55.47506 5.122555
29.029154 56.236893 2.077465
28.593813 56.503242 2.6917288
28.700668 56.65274 5.475579
29.017622 56.818043 6.491891
29.341654 56.616783 6.9874244
29.216934 57.407505 2.292537
28.820587 57.188145 2.656076
28.62501 57.36093 3.4433916
28.501741 57.500088 4.384921
28.684534 57.408043 5.20394
28.962254 57.295765 6.39902
29.31794 57.459267 7.0860233
28.863142 58.257973 3.6523135
29.16661 58.549294 4.773284
29.088379 58.309772 5.3132515
29.381374 58.832916 3.1312687
29.962635 54.331593 2.9199204
29.733818 54.120853 3.7356691
29.871855 54.068916 4.178019
30.110214 54.1416 4.848744
29.525377 54.95524 2.2611592
29.566317 54.677444 2.6499808
29.37821 54.413982 3.359931
29.373066 54.445583 4.403738
29.843637 54.842323 5.4237866
30.009832 55.25189 6.2966495
30.130499 54.969204 13.749397
30.066406 55.06367 14.405435
30.139061 55.225048 14.977264
29.477266 55.8096 1.8209386
29.498722 55.940277 6.5934067
30.03438 55.92202 7.0632076
30.2525 55.59778 13.133946
29.849655 55.725533 13.694294
29.729088 55.744225 14.436688
29.962727 55.679363 14.975893
29.813803 56.46782 7.3993855
30.056103 56.854103 7.799863
29.764603 56.31051 13.866243
29.693224 56.42579 14.45598
29.94872 56.362015 15.1631775
30.31137 56.308445 15.683814
29.912666 57.086292 1.7255721
29.639969 57.36967 7.4313397
29.90117 56.99677 14.011842
29.874056 56.982624 14.487365
30.255924 57.226807 15.437447
29.919365 58.07939 1.7998222
29.4576 58.607338 2.6910992
30.058252 58.30066 7.374079
30.307486 57.774128 14.86896
30.184465 59.170944 1.7334825
29.825924 59.019352 2.5189831
29.414515 59.22081 4.175733
30.209343 60.158157 2.5972068
30.032698 60.09706 3.427771
30.307068 59.906075 5.111128
30.426067 60.840958 7.885295
30.176153 61.10803 8.191768
30.381763 61.921577 5.0797215
30.13148 61.667706 5.5789304
29.963808 61.694374 6.3881373
29.992464 61.722824 7.5385737
30.118324 61.670647 8.378762
30.234526 61.878605 8.767177
29.992579 62.462162 6.284568
29.970604 62.45059 7.65947
30.050732 62.42775 8.297571
30.15036 62.47544 8.759893
30.212906 63.2312 5.721554
30.213995 63.313423 6.259279
30.196522 63.13576 7.4924445
30.24838 63.054657 8.390188
31.446447 52.16667 13.229308
31.32691 52.633736 12.760737
31.268764 52.644054 13.250216
30.505428 54.058727 3.0182106
30.406698 53.884144 3.6101966
30.728077 53.77665 4.009671
31.309141 53.857418 7.721302
31.264376 53.796116 12.074393
31.0392 53.61737 12.611524
31.089624 53.522903 13.295956
31.169867 53.83528 14.618335
30.494968 54.69096 2.3183742
30.615189 54.56762 2.4378636
31.014446 54.505383 8.372481
31.13219 54.857704 9.057033
31.32898 54.620987 11.45289
30.56672 54.939762 13.122049
30.496063 54.747414 14.764771
30.644224 54.790054 15.025736
30.796104 55.665085 1.8255877
30.74033 55.624176 8.289395
31.346924 55.288486 11.548973
30.641962 55.40193 12.770211
30.51688 55.51274 15.469635
30.860924 55.6711 15.787776
30.877245 56.51752 8.570515
30.335072 56.49361 13.199604
30.774271 56.588978 16.056324
31.213135 57.70526 -0.3911791
30.915829 57.430607 0.661236
30.789755 57.366863 8.46651
30.422945 56.922695 13.259402
30.609 57.404007 13.754118
30.561314 57.6764 14.464353
30.497097 57.79676 15.662575
30.74311 57.526405 16.054134
31.185545 58.56179 -0.7260262
31.038157 58.44546 -0.42437488
30.565098 58.571877 0.53137904
30.6309 58.38059 8.002452
31.18472 58.738995 8.738759
31.101381 57.73331 13.781249
30.769985 58.21842 14.493616
30.716635 58.3626 15.355888
31.020699 58.254944 16.03387
31.30842 59.214264 -0.79447937
31.096867 59.356598 -0.36102355
30.843153 59.267307 0.4056805
30.494257 59.62812 1.7819316
31.063978 58.75534 15.406662
31.3702 59.85057 -0.40983665
30.951134 59.974228 1.0054922
30.752726 60.37866 1.949089
30.470055 60.606453 3.5825164
30.6584 60.674232 4.4987497
30.52167 60.59855 7.802706
30.524708 60.925274 8.471089
30.689293 60.78094 2.854711
30.65885 61.33243 4.2980676
30.388071 61.548405 8.862071
30.663963 62.564568 4.7892942
30.78126 62.61443 9.282748
30.703392 63.267895 5.045246
30.544489 63.51325 5.4362617
30.645655 63.606285 7.2881217
30.584538 63.3365 8.480886
30.831045 63.22752 8.9573345
30.802168 63.81938 5.7066417
30.6707 63.81731 6.28615
30.85804 63.89113 7.156851
30.89549 63.71199 8.246008
32.315403 48.349888 10.165092
32.17036 48.947155 8.033684
31.942533 48.85401 8.591471
31.94115 48.736744 9.624913
31.97648 48.996902 10.349533
32.21677 49.00348 10.81815
32.101143 49.885277 7.8701477
31.670975 49.53202 8.639536
31.631367 49.55553 9.474976
31.81325 49.265446 10.35067
32.067036 49.694584 10.873047
32.040478 50.5272 8.11487
31.84688 50.667694 8.463705
31.652617 50.317207 9.305386
32.06971 50.21483 10.796916
32.038685 50.714645 11.935647
31.955912 50.892258 12.358283
32.20009 50.75679 13.228289
32.375446 51.728325 7.6968346
31.798018 51.19047 8.9584675
31.681835 50.9725 9.377695
31.880556 51.892845 11.01938
31.891031 51.643745 11.612608
31.660908 51.74401 12.41013
31.904196 51.59956 13.333052
32.008663 51.967358 14.062282
32.13531 52.787285 7.0467005
31.858383 52.781963 7.605932
32.32584 52.341503 9.619427
31.704762 52.64759 11.619266
31.494524 52.31815 12.219619
31.763212 52.587994 14.342772
32.060703 52.47865 14.661268
31.217642 54.014168 3.031097
31.115114 53.79862 3.4792593
31.172426 53.78439 4.1171284
31.597748 53.382668 8.35172
31.881094 53.91567 10.003875
31.517895 53.905582 11.255533
31.54843 53.380142 14.726892
31.436966 54.990128 2.3214061
31.522015 55.0144 9.57467
31.715635 54.408035 10.560181
31.552563 54.557537 11.187708
31.497437 54.482628 15.41584
32.12429 55.53717 16.240475
32.084732 57.10351 -0.93435264
31.824242 56.837154 -0.11984256
31.366133 55.985153 9.184544
32.1093 55.89564 11.3306875
31.537746 56.419964 16.38945
31.854574 56.86445 16.62605
32.04616 57.86125 -1.3596237
31.802055 57.72221 9.162482
31.807133 57.472847 13.106613
31.289412 57.555946 16.429064
31.734116 57.380745 16.584248
31.69193 58.52541 -1.17485
31.5207 58.414955 9.09277
31.576351 57.786213 13.223587
31.448378 58.421997 16.181942
31.979887 57.895702 16.58429
31.802618 59.477272 -1.1083896
31.971087 59.173603 14.928982
31.470133 58.98813 15.39255
31.922825 58.755623 16.12632
31.798235 59.906826 -0.88766485
31.67376 60.09394 -0.4282036
31.578411 60.37317 0.5706287
32.17692 60.945408 11.392823
32.25639 60.72652 12.559439
32.210064 60.743183 14.548594
31.730188 60.852947 1.7147441
31.412422 61.287815 3.3244343
32.371986 61.6393 10.987966
32.119923 61.2709 11.916229
32.149464 61.79075 12.635202
32.10905 61.64491 13.637725
32.134 61.67481 14.662281
32.25232 61.61872 15.14398
31.41015 62.503906 4.3896375
31.238962 62.800095 4.4709883
31.472412 62.48211 9.649334
32.305256 62.31487 12.419616
32.280697 62.06778 13.356568
32.295372 62.287838 14.581336
32.328262 61.98067 15.1946125
31.536278 63.290802 4.736446
31.878445 63.500923 9.182192
31.840563 62.955833 9.777225
31.581934 63.747665 5.148485
31.454472 63.94543 5.620434
31.456324 64.13087 6.398545
31.720306 64.25005 7.3544335
31.741865 64.06446 8.166469
33.039932 45.246338 4.9525113
33.136086 45.04471 5.5886893
33.14207 45.038 6.0950494
33.230026 46.212646 3.1236637
33.114895 46.000195 3.6259
33.019165 45.596092 4.5523343
32.70947 45.67609 5.7436843
32.788055 45.696037 6.378821
33.131527 45.753384 7.0933113
33.132545 46.60996 3.1293058
32.925552 46.64595 3.5048018
32.70567 46.421455 4.518729
32.553806 46.497417 5.527585
32.62248 46.3619 6.387969
32.807655 46.445957 6.9078307
33.3087 46.507072 7.962434
33.23396 47.20511 3.0569904
32.90346 47.18031 3.71421
32.806683 47.222485 4.590691
32.844673 47.548046 5.4275265
32.972183 47.605095 7.6814437
32.80241 47.863037 8.551888
32.869938 47.864677 9.465302
32.70022 48.235943 10.381846
33.16377 48.21306 10.790621
33.081455 47.749577 4.5115
33.002136 47.921963 5.72817
32.84311 48.31439 7.3935614
32.362488 48.561237 10.633357
32.60041 48.746643 10.883614
33.265812 49.13889 12.451201
33.391823 49.220802 13.571432
32.489155 49.54402 7.497102
32.54577 50.015305 11.595443
33.13668 49.40993 12.467335
33.059036 49.605526 13.256195
32.760014 50.98786 7.3854136
32.533024 50.67542 13.675025
32.827576 50.81559 14.113769
33.300465 50.91104 14.806763
32.456722 51.984085 14.5013485
33.18988 51.28646 14.819922
33.46637 53.017162 -3.979567
33.39426 52.949005 -3.8145106
33.01174 52.794266 6.181483
32.653976 52.20525 14.83149
33.430267 53.24501 -3.5803628
33.472218 53.07041 -3.0826545
32.203342 53.974136 5.1402183
32.806526 54.118996 15.616942
33.473263 54.77573 -1.01383
33.4469 54.446648 -0.04468944
32.15283 55.27602 15.958387
32.6006 56.401924 0.12591152
32.889557 55.661846 1.5561602
32.81402 55.686005 16.600277
32.945404 56.971684 -1.5967078
32.35644 56.55029 0.3937565
32.793495 56.35354 11.395374
32.64764 56.524582 16.829271
32.826733 57.823433 -1.8348529
32.381863 58.00303 -1.5294602
32.946163 57.18791 10.220129
32.635902 56.935204 12.470024
32.48587 57.16285 16.789364
32.684956 58.490623 -1.7969725
32.905716 59.255424 10.481844
33.41649 58.33108 11.310532
32.516228 58.119305 13.04171
32.184994 58.368908 16.384794
32.71133 57.982376 16.659071
32.8877 59.24079 -1.6358954
32.547455 59.61676 -1.4077802
32.810043 59.769714 10.67089
32.8853 59.71123 11.458496
32.592735 59.908833 12.698204
32.594067 60.071102 13.836931
32.555573 60.024086 -1.043148
32.461887 60.41319 -0.49169087
32.487286 60.536274 11.020688
32.43627 60.591843 -0.047917575
32.57031 60.79313 0.57054687
[...]
POINT_DATA 7810
SCALARS features_00 float 1
LOOKUP_TABLE default
0.6579479 0.64779526 0.6816013 0.66529024 0.6273624 0.5809604 0.6590303 0.63530445 0.6091475 0.5378877 0.5742852 0.5312325 0.6060388 0.6692023 0.6467207 0.61978436 0.5521187 0.66467816 0.6836595 0.61693496 0.53323936 0.60734963 0.6189335 0.47947955 0.36881435 0.30788136 0.42819113 0.50976753 0.52091974 0.5033099 0.46693534 0.3697894 0.28755093 0.40775836 0.375145 0.39565805 0.30515486 0.5830653 0.5840292 0.567033 0.53463477 0.6408101 0.62654823 0.61677754 0.58858275 0.4983376 0.32579428 0.5969786 0.6347664 0.62024707 0.61912024 0.33713734 0.23797464 0.56209064 0.70143884 0.7358609 0.6921422 0.24304666 0.19895174 0.7421803 0.77513134 0.7462662 0.68722653 0.37230176 0.24612099 0.72416896 0.75721794 0.7408602 0.2607499 0.30418605 0.21968502 0.71775234 0.24827066 0.2578895 0.27857345 0.22943309 0.19764315 0.12740898 0.40012956 0.4459392 0.4315473 0.418481 0.51898056 0.5121878 0.5021898 0.5191603 0.602921 0.58061355 0.5692462 0.5729054 0.6458435 0.6495327 0.6314616 0.6118272 0.29219472 0.25887102 0.29931438 0.54238564 0.5427281 0.51005733 0.044240996 0.137821 0.19434819 0.3109642 0.35810396 0.54996896 0.5378742 0.03880558 0.001926139 0.11456667 0.40562263 0.53073084 0.5038014 0.46997476 0.102588624 0.18580467 0.39296684 0.58464766 0.5557594 0.10734706 0.60347164 0.6401804 0.47982794 0.34420177 0.12667927 0.5863973 0.6153551 0.6916327 0.70779204 0.6741226 0.5199866 0.49119216 0.3640304 0.14632529 0.064097315 0.5442535 0.6452452 0.6671788 0.6397103 0.5465707 0.51135814 0.41995713 0.2652828 0.6205243 0.53453124 0.38581848 0.30845734 0.17373095 0.13076726 0.34612557 0.35932872 0.24314405 0.2159021 0.4695793 0.55780494 0.5920025 0.6420002 0.65978706 0.63636315 0.61416984 0.60121804 0.6679159 0.66010153 0.63271165 0.6077843 0.3007263 0.40047383 0.44741017 0.39752403 0.30476156 0.23014447 0.33359185 0.44567418 0.4476869 0.31378484 0.22891292 0.29810697 0.31843913 0.41291797 0.23318811 0.17161757 0.20249784 0.25963727 0.08687076 0.24626441 0.2996006 0.1295309 0.18707944 0.23755834 0.28186592 0.26501268 0.06422877 0.07780589 0.0011534877 0.16198733 0.22129223 0.26708013 0.22596948 0.4630585 0.47651404 0.46436644 0.029127996 -0.10288136 0.07526676 0.2887395 0.39147007 -0.075838 -0.04092981 0.07970774 0.36332244 0.40810013 0.44014162 0.39442322 0.059130877 0.10279098 0.5136905 0.4650617 0.5151825 0.053148583 0.23686078 0.57643276 0.48998207 0.5512742 0.037023462 0.32243574 0.5819948 0.4530486 0.5785858 0.45320055 0.5735505 0.5048105 0.5734459 0.5478043 0.48321944 0.21721661 0.2823071 0.35395116 0.40860006 0.20832172 0.29512894 0.30499402 0.4286055 0.44209412 0.4789062 0.51444125 0.5390897 0.586424 0.5319241 0.45857513 0.47920448 0.52648604 0.5502682 0.62610763 0.48772085 0.46252805 0.64213765 0.655397 0.6441553 0.5880493 0.53501195 0.6354662 0.6176685 0.59877014 0.69131684 0.70514226 0.6713554 0.62919164 0.5550483 0.4407413 0.7073535 0.71834636 0.70180357 0.6235826 0.50781024 0.40160507 0.27661532 0.68961364 0.68314445 0.6218247 0.4944157 0.26029462 0.31255895 0.29319286 0.23790827 0.15157783 0.530626 0.3692938 0.2879108 0.23883036 0.19770879 0.1733866 0.27862662 0.28651085 0.13591653 0.17180471 0.25649443 0.11005081 0.27365243 0.2585532 0.22142594 0.2194081 0.20413604 0.65485394 0.64945245 -0.00022695959 0.19008547 0.6133137 0.5820673 0.20018606 0.18995155 0.09679173 0.20921344 0.3881622 0.14738339 -0.2729832 0.35101828 0.34778458 0.20129448 -0.092506945 0.3708277 0.4638033 0.5132547 -0.45097226 0.064300194 0.3745287 0.52970546 -0.18159506 -0.3257803 -0.024788208 0.43138868 0.3305603 0.5586996 0.5821953 -0.027283698 0.036530755 0.14941424 0.24499282 0.5754887 0.54394585 0.13787735 0.51326907 0.45171764 0.34298664 0.29832703 0.11304222 0.5587688 0.58022165 0.43857795 0.4864072 0.53797257 0.5815027 0.5963328 0.5219061 0.29973513 0.21524623 0.3299961 0.45395952 0.5468229 0.5833752 0.60365427 0.5576239 0.5245912 0.40312982 0.32237002 0.54302704 0.548606 0.5684485 0.5638742 0.581464 0.57157683 0.45908943 0.38570395 0.61683077 0.6375288 0.37721786 0.3111868 0.25079742 0.8152532 0.60935754 0.6354367 0.2839352 0.2524688 0.17100112 0.6868588 0.73701346 0.82193625 0.64873904 0.07658367 0.19269188 0.23046973 0.65958095 0.6996844 0.7902876 0.81902206 0.6253264 0.5282358 0.19321734 0.26249397 0.2843483 -0.03915838 0.2937503 -0.18068814 -0.029125214 0.24684203 0.21095432 0.68881106 0.6710033 0.6415427 -0.09791319 -0.016884588 0.16748372 0.13481753 0.69433 0.6861794 0.6591289 0.6158992 0.32459593 0.29507965 0.2788834 -0.049336128 0.15363102 0.096310094 0.6590991 0.64845645 0.5801154 0.54201907 0.30824634 0.33416063 0.21700135 0.59843946 0.5953462 0.52717406 0.3685457 0.24584468 0.2792852 0.18737037 -0.2311875 0.26729387 0.044701286 0.28186172 0.19146445 0.31224376 0.43545592 0.27837092 0.26312983 0.44439584 0.11464817 0.21465024 0.4948283 0.10664969 0.5335452 0.466824 0.41738784 0.2571322 -0.12996863 0.5570251 0.16892302 0.30103928 0.56809396 0.46401814 0.48147008 0.09628086 0.1053132 0.23250648 0.30860478 0.5149119 0.55659103 0.5729543 0.505029 0.50526655 0.44603872 0.32845414 0.16811058 0.0070947194 0.48144794 0.516801 0.50964123 0.5213431 0.48333997 0.51809186 0.4549401 0.35927162 0.82972455 0.89251554 0.5112989 0.46036088 0.34373915 0.23681325 0.58325464 0.6792458 0.79021174 0.87685394 0.92997193 0.41965973 0.5441462 0.085703254 0.45465332 0.57541156 0.6652348 0.74242675 0.8660703 0.89737093 0.9030527 0.022065109 0.092780694 0.20178185 0.23294465 0.5494728 0.62339556 0.7695766 0.84426546 0.8800958 0.40507886 0.25724143 0.23646863 0.59144974 0.6627679 0.6761955 0.798169 0.18724607 -0.030804284 0.25797927 0.5694384 0.6039917 0.6151563 0.5576097 -0.284426 0.19964945 0.40934724 0.3585108 0.3114176 0.65146995 0.6525318 0.65485746 0.4753971 0.191255 0.26609668 0.14976409 0.107397795 0.38097906 0.4594323 0.4657862 0.40437946 0.29739 0.68030846 0.31502432 0.21952271 -0.2851963 0.0004727319 0.17996824 0.33489922 0.4583837 0.4896109 0.36538354 0.5676856 0.620247 0.049653552 -0.24947193 -0.12892962 0.2812565 0.36806124 0.469437 0.38820153 0.5379711 0.5474092 0.1832697 0.2798648 0.45295608 0.46117902 0.42759815 0.22113505 0.2649816 0.019600118 0.25241274 0.16071194 0.32899684 0.02362734 0.070255235 0.51646507 0.59230083 0.4665149 -0.082288966 0.57988787 0.6321962 0.44163126 0.45395553 0.27950948 0.09744729 0.30160382 0.16474815 0.042525962 -0.124148995 -0.34987617 0.37768352 0.2562788 0.45854715 0.42929178 0.04186324 0.100731686 0.2549795 0.19685586 0.44958463 0.48248783 0.45387778 0.40259963 0.26580542 0.1487162 -0.0070442352 0.01334572 0.09254973 0.06572929 0.43723541 0.43307662 0.45311272 0.37460083 0.38129643 0.41490385 0.3237133 0.6539161 0.80091894 0.8798706 0.9067032 0.3433316 0.36291778 0.1539198 0.45417643 0.54633415 0.65672666 0.91640663 0.891645 0.371741 0.32165277 0.3528563 -0.013930423 0.0017863298 0.05674596 0.10037579 0.15350589 0.4513905 0.49562988 0.8938763 0.36385027 0.311827 0.08051537 0.12255171 0.16157548 0.2354521 0.32353228 0.8299749 0.8541355 0.1197704 0.16643953 0.7881686 -0.2083645 0.213604 0.089490764 0.041081313 0.0652509 0.24604276 0.369586 0.6111944 0.5224593 0.53242177 0.41902018 0.35990268 -0.31105968 -0.41667283 0.020306297 0.23282939 0.24975273 0.20369388 0.21298021 0.012851305 0.5644449 0.58386296 0.19388303 0.12112362 -0.17446071 -0.33550024 0.2018997 0.19395906 0.13936055 0.17195557 0.22590208 0.1334484 0.5718388 0.575294 -0.17704687 0.019501567 0.10657744 0.11180809 0.106813215 0.20563993 0.21575683 0.5486599 -0.11632409 0.046667553 0.014231972 0.15002105 0.3373263 0.50530237 0.51698846 -0.25523272 -0.00425547 0.0052171405 0.06898937 0.43817914 0.01295235 0.039207198 0.047870472 0.13475947 0.048545957 0.087911844 0.23034184 0.43985748 -0.017504666 -0.010656998 0.06936126 0.29627943 0.43428 0.4807704 0.581861 0.04160975 -0.03181895 0.1940324 0.38668054 0.48546153 0.6088722 0.6762142 0.33633626 -0.24978966 0.48643893 0.59700286 0.6686292 0.7119089 0.67542696 0.17198256 0.14780408 -0.174011 -0.14968987 0.62745595 0.6925155 0.69967914 -0.20411609 -0.18925717 0.1569399 0.03976161 0.30407473 0.18097876 0.14272106 -0.00040063262 0.012689402 -0.0013802256 0.018707901 0.044040322 0.09274289 0.18754613 0.37639275 0.37645298 0.21511936 0.2931005 0.37173015 0.40225697 0.3482471 0.3029559 0.5200479 0.73385876 0.8396559 0.8756298 0.43622637 0.28484595 0.17418647 0.12470672 0.11124721 0.08638691 0.15233111 0.18478909 0.20692489 0.37542048 0.44520193 0.5119287 0.8414843 0.8380588 0.44343078 0.39582053 0.039103337 0.086657606 0.13580468 0.17005074 0.19089666 0.1791557 0.25063825 0.32789016 0.81527054 0.42672455 0.1601822 0.03888055 0.21239522 0.7903766 0.37716603 0.023584854 0.00054477155 -0.037501965 -0.021806132 0.75106883 0.25040594 -0.09983818 -0.0061006173 0.13202913 0.09884969 0.06194 0.50124705 0.46118498 0.40231013 0.37318012 0.14196298 0.046205096 -0.2335537 0.07057328 0.060966555 0.21038446 0.51390535 -0.1590037 0.4515103 0.4968133 0.26304758 0.34974477 0.5573088 0.6095097 0.45983607 0.03542887 0.014372238 0.2785911 0.369447 0.5371146 0.6264458 0.47212848 -0.0073286113 -0.035459384 0.17524678 0.18193336 0.24202295 0.36307675 0.53620654 0.36568624 0.010558277 0.19386534 0.1519793 -0.0077049322 -0.000113755465 -0.15037197 -0.040582273 0.063888185 0.3235878 0.45716333 -0.0204366 -0.26134497 -0.10411763 0.040863097 0.58913124 -0.083070196 -0.2847377 -0.15945609 0.023458675 0.5946976 -0.15535733 -0.11793519 -0.25103045 0.4409309 0.5915178 0.61070925 0.58528745 -0.06592475 0.015117166 -0.10287885 0.44788972 0.53582096 0.5872143 0.5536692 0.13902819 0.114618644 0.17404723 0.12609231 0.07765278 -0.002812393 0.07252589 0.07055941 -0.046749108 0.010366294 0.01796621 0.09881763 0.20898902 0.23240839 0.23995456 0.35847837 0.319142 0.3347897 0.34247917 0.33452028 0.25683257 0.32053512 0.31212944 0.30846983 0.20259544 0.20285037 0.51068544 0.7748531 0.5664381 0.5046915 0.4052558 0.18870752 0.19788599 0.15144153 0.091995105 0.17275304 0.19788611 0.20676531 0.16546111 0.15388638 0.33059976 0.3424724 0.36919883 0.7676591 0.5379851 0.0697256 0.07750416 0.20094676 0.16735643 0.13197944 0.2664831 0.70609564 0.75275517 0.45074818 0.43615007 0.13654739 0.087891504 -0.028133104 0.63473403 0.73174024 0.3537417 0.049375646 0.042043626 -0.08766786 -0.10414975 -0.08800344 0.5157008 0.52987254 0.08902608 0.4638217 0.40444475 0.061052963 0.12572414 0.37981465 0.48195145 0.48920605 0.4950264 0.68397635 0.425828 0.6614289 0.729076 0.39181218 0.66272986 0.7122016 0.3363789 0.16016547 0.31925195 0.5271795 0.6420314 0.6953696 0.22456244 0.2632655 0.25085512 0.103647776 0.2052021 0.29793468 0.24038461 0.15194787 0.4979365 0.4078205 0.23755197 0.47785974 0.44036707 0.28900117 -0.091809765 -0.085811205 0.4230763 -0.23396897 -0.24771173 0.41320008 -0.082578994 0.055939797 0.08721478 0.45869845 0.45388132 0.007587372 0.12927958 0.26974458 0.31319863 0.22607262 0.4267621 0.4291466 0.46246898 0.036245823 0.08683993 0.38519564 0.41022748 0.14701645 0.17119527 0.11016999 0.07608567 0.42244324 0.44627964 0.14431623 0.05869782 0.019142022 -0.011216976 -0.13123229 -0.09533988 -8.136779e-05 0.009199176 0.02342829 0.24535334 -0.08036557 0.005742155 0.30267364 0.39328334 0.40635255 0.3244423 0.45293176 0.49177417 0.48835766 0.43475422 0.22820878 0.28834897 0.2774697 0.23860462 0.15972827 0.19939771 0.20822588 0.20585392 0.19119966 0.590459 0.5792414 0.44979453 0.2941593 0.24515866 0.19488654 0.1575153 0.2101548 0.20028476 0.111692056 0.20499483 0.19391838 0.17157078 0.14416014 0.27713126 0.27905685 0.36118323 0.47921515 0.5869906 0.5219383 0.5530144 0.07234889 -0.14167045 -0.10033153 0.48754188 0.59178483 0.4748444 0.014660688 -0.15904266 -0.23051164 -0.25144804 0.28297174 0.043918215 0.1983792 0.091198914 0.06508778 -0.006326288 -0.06944213 0.4095404 0.30692497 0.24151699 0.1816308 0.40481636 0.5943485 0.73048544 0.38652346 0.21419069 0.7805275 0.21203871 0.28366542 0.7705662 0.6815863 0.7436632 0.36023974 0.16732137 -0.09925497 0.38412118 0.59773993 0.53500026 -0.026851028 -0.07132976 0.56189567 0.13161616 0.045584973 0.5152715 0.39560568 0.21090516 -0.1707927 0.20840088 0.40208876 0.07829582 -0.19005693 -0.27164656 0.31307322 0.4905812 0.37784094 0.28315252 0.07768726 0.33750516 0.34432086 0.558077 0.5243412 0.40601313 -0.042845324 0.25773948 0.29269752 0.3639148 0.35509524 0.6014652 0.5571687 0.48086298 0.031409733 0.07471004 0.39949456 0.30960402 0.051788457 0.08593807 0.033461742 0.30703515 0.39998698 0.40609056 0.35569388 0.10762803 0.052998275 0.03206955 -0.026419226 0.22858731 0.059873223 0.045206077 0.01722136 -0.0024086535 -0.042772837 0.45274627 0.40466255 0.3482626 0.4333316 0.49423075 0.49290073 0.43513328 0.4764635 0.26294166 0.29116526 0.29734027 0.22556868 0.26097986 0.26891157 0.25408313 0.17780745 0.18877023 0.1900458 0.22329718 0.23760575 0.19954725 0.14649487 0.1871255 0.19375986 0.19662178 0.58227706 0.5586281 0.4861642 0.28556103 0.19841422 0.2559104 0.29818216 0.2718233 0.15561707 0.16054654 0.1792622 0.17195812 0.07864571 0.052460387 0.09298676 0.031384096 0.072617136 0.14087935 0.15201811 0.11836024 0.1695177 0.25832725 0.5019433 0.55538505 0.047544993 -0.043362573 0.19900279 0.46952832 0.09022995 0.16599554 0.293277 0.07232304 -0.0011756886 0.10406479 -0.048713863 0.16663368 0.019277133 0.09009577 0.65242875 0.7526027 -0.10688616 0.7840238 -0.102714606 0.72546613 0.36007768 0.5556193 0.2672994 0.62095225 0.19369306 0.33772963 0.611866 0.5542629 0.049491934 0.22733635 0.4841388 0.4298748 0.2480033 -0.076838486 0.15043756 0.3906224 0.42193475 0.30773085 0.6026715 0.27020073 0.2639048 0.3094083 0.63489807 0.6278718 0.5504348 0.4843519 0.35879982 -0.074011445 0.003464833 0.26020303 0.16713664 0.26212877 0.60988766 0.5202714 0.012095407 0.021004768 -0.07113109 0.23666447 0.33267957 0.35466552 0.29781798 0.014824844 -0.000957299 -0.041369867 0.1981453 0.088393055 0.10223426 0.09623191 -0.08352758 0.27304623 0.1253321 0.13135779 0.11438464 0.08618438 0.20541057 0.34680057 0.47527033 0.4408811 0.40140378 0.4090237 0.46264124 0.36182714 0.34879053 0.29635638 0.35211372 0.3530807 0.29843777 0.2266177 0.19558851 0.27967253 0.3317203 0.2468824 0.11195059 0.16165653 0.1821072 0.116916016 0.110693604 0.18891504 0.17119642 0.124689974 0.13818625 0.38987586 0.2743116 0.29672623 0.32450026 0.3246668 0.11064629 0.007414758 -0.0136837065 -0.044810854 0.0279345 0.054586746 -0.00067564845 0.4722211 0.41392606 0.32464164 0.32330644 0.26167673 0.0147343725 -0.012025252 -0.06500976 0.17920959 0.2520239 0.2141944 -0.0035195984 0.011110127 0.1580227 0.17934161 0.15384668 0.147751 0.123475276 0.42126608 0.12566033 0.11397827 0.5746212 0.6768764 -0.033501565 0.6785066 0.49283198 0.64586663 0.3686789 0.24574795 0.50448835 0.39367223 0.5915774 0.41723707 0.44555497 0.5632682 0.55399096 0.3497923 0.44386202 0.4802609 0.49395198 0.30884764 0.2072492 0.34520614 0.46261114 0.35987204 0.56798863 0.17517611 0.24734464 0.60633427 0.3913234 0.14933404 0.1349919 0.5986181 0.61112744 0.5451896 0.44141448 0.19606699 0.0324822 0.2552683 0.24168296 0.20061143 0.037173435 0.02809085 -0.011032958 -0.041683346 -0.1283892 -0.009750483 0.0118208695 0.2939975 0.27452856 0.11604662 0.13410208 0.14189309 0.12590607 0.10133171 0.057145193 -0.049421154 0.08595835 0.2534683 0.40367174 0.39711267 0.13481466 0.13197695 0.074585505 0.26271388 0.41826728 0.34140742 0.36745477 0.34291023 0.28716397 0.25248653 0.33740878 0.29206756 0.2484008 0.21012595 0.11096689 0.14683852 0.109821826 0.115744464 0.2186778 0.23287284 0.05035133 0.20888436 0.13566275 0.290522 0.31027144 0.04665211 -0.04553401 -0.17726314 0.053154636 0.04642005 0.21763206 0.25121462 0.27072838 0.2749843 0.3014019 0.3239737 0.006290987 0.0030435324 0.029148456 0.10458612 0.13336825 0.18372825 0.23820579 0.16820157 -0.07731033 0.12846798 0.14101195 0.03533811 -0.06086989 -0.07181986 0.10808641 -0.74179995 -0.25151396 0.2002933 0.2975688 0.31299767 0.13338315 0.10518254 0.051891282 -0.06842678 0.037436046 0.22291245 0.1700523 0.1733631 0.1592752 0.36584502 0.17723407 0.17114823 0.13257815 0.13337117 -0.018925183 0.25048926 0.11638006 0.43799114 0.29969662 0.5171707 0.37474036 0.3785646 0.50596976 0.42256814 0.47535723 0.22974381 0.20305502 0.34714067 0.42053896 0.4798814 0.4972735 0.30172676 -0.19506574 0.33842912 0.43719596 0.067831434 0.08057639 0.5024917 0.07861435 0.075754575 0.5353162 0.52016425 0.42286652 0.28285155 0.17886597 -0.050939187 -0.3318695 0.04834993 -0.02124492 -0.07619458 -0.024356589 0.029370822 0.08441253 -0.020295314 0.25166494 0.24764603 -0.017919503 -0.06174414 0.120914645 0.14521256 0.10579003 0.10345245 0.11811544 0.09179693 0.03344413 -0.008705493 0.26695648 0.22687726 0.350004 0.24944171 0.32388037 0.35715386 0.3549032 0.27680147 0.1846784 0.21707451 0.07290513 0.11247493 0.1669116 0.21483159 0.13554126 0.061703283 0.22973941 0.21836041 0.19710183 0.13347372 -0.0079256 0.20113204 0.13221139 0.04561433 -0.16953969 0.10411874 0.12723741 0.23568407 0.15529172 0.10615036 0.16888133 0.49103618 0.54711306 0.18710962 0.13645348 -0.066700846 0.24119201 0.27727908 0.330795 0.4219237 0.54291105 0.42967927 -0.11375995 0.047319543 -0.29686677 -0.58838594 -0.19122447 0.2908764 0.2407488 0.30443066 -0.067621775 0.08542152 -0.042732663 -0.14268449 -0.18826988 -0.40630868 0.29492152 0.15722285 0.17727953 0.036384925 -0.020007819 -0.09546366 -0.2612846 0.24657509 0.17511585 0.16562155 0.1930833 0.18389657 0.18262477 0.15905504 -0.31005406 -0.020040184 0.029716166 -0.13386948 0.05208413 0.2189377 0.39080727 0.3427594 0.31780207 0.43287975 0.33821535 0.39155406 0.19129601 0.448404 0.4696281 -0.16638918 0.21791038 0.31337708 -0.20495376 0.42645496 -0.08331744 0.43545532 0.43434232 0.3183835 0.19565246 0.0016444921 -0.052953787 -0.2553974 -0.021941662 0.07299762 0.07915504 0.05575294 -0.11116652 -0.08466663 0.13566324 0.15749669 0.21139619 0.21994962 -0.013768882 -0.033593826 0.24550971 0.3018881 0.31314534 0.28900152 0.10867947 0.08186284 0.10611196 0.07858633 0.06762715 0.0892936 0.11337575 0.24033242 0.14366399 0.31615394 0.31821454 0.28703123 0.2557493 0.20100313 0.2782771 0.25463793 0.2848281 0.15220958 0.14585973 0.19366856 0.23276985 0.25838274 0.19518504 0.0653864 0.13516444 0.16013062 0.16621265 0.11691823 0.19437726 0.18825772 0.150447 0.029766683 0.09144641 0.20345187 0.1720927 0.24876818 0.21573949 0.16061695 0.1459581 0.21594393 0.23864321 0.17007528 0.20466729 0.11970343 0.22215956 0.44680703 0.5251039 0.43551713 0.2855704 0.16295318 0.2694432 0.35351855 0.29116955 -0.26380926 -0.20120275 -0.1803833 -0.36249042 -0.36052954 0.30310273 0.30678004 0.16748692 0.22251743 0.19016062 -0.2931532 -0.26204494 0.2867746 -0.12754105 -0.332769 -0.37692297 0.2561042 0.15122804 -0.52677226 -0.2317218 0.178634 -0.1423072 0.15560535 0.051383942 -0.0009601414 -0.08917767 -0.008924887 0.15222058 0.24577567 0.41016582 -0.24077567 0.11696586 0.27112252 0.4499031 0.18775634 0.36321747 0.172552 0.21692666 0.12650183 -0.19347717 0.3217672 -0.09493375 -0.26846474 -0.13697307 -0.13521957 0.16403455 0.24843517 0.21445082 0.15673287 -0.31697172 -0.17107198 -0.1434607 -0.121941395 0.2546011 -0.16508046 -0.13987821 -0.13143986 0.32799453 0.32795087 0.22372195 0.035090923 -0.08303844 -0.15362747 -0.09428533 -0.19892685 0.036442228 0.076572835 0.14036718 0.16201738 0.16112296 0.18235031 0.12152109 0.17377946 0.19076559 0.22257194 0.25554058 0.0401071 0.050434947 0.12479839 0.27101707 0.24851453 0.2621536 0.28328717 0.30407968 0.29889166 0.21580908 0.09267116 0.08476047 0.2723049 0.29984072 0.30200723 0.3063876 0.28695685 0.27513406 0.24196437 0.6386861 0.6394948 0.011280522 0.025534973 0.09100124 0.13375935 0.18788354 0.22147405 0.63234437 0.6366982 0.637274 -0.023431703 0.09841262 0.1868197 0.1700566 0.15109238 0.5420451 0.58432555 0.63651526 0.64533126 0.57805383 0.054585394 0.14872004 0.14398578 0.30985788 0.40243086 0.49332386 0.58124644 0.49640375 0.44721037 -0.0063255616 0.11904564 0.4759571 0.1970755 0.22020364 0.35896635 0.41903222 0.4635049 0.37295336 -0.11762872 0.15019117 0