# vtk DataFile Version 2.0
Really cool data
ASCII
DATASET POLYDATA
POINTS 2799 float
24.31706 22.166193 -0.50215226
24.394009 22.137445 -0.10991979
24.24684 22.619709 -1.260276
24.083126 22.734911 -0.56705236
24.264038 22.542925 -0.04587935
24.321533 23.382473 -1.781052
24.164442 23.441324 -1.381137
24.020315 23.463406 -0.50181913
24.205061 23.600418 0.08967915
24.2712 24.255138 -1.1536247
24.125658 24.128222 -0.5746233
24.256641 24.173838 -0.11975131
24.406675 32.22162 -3.402839
24.258947 32.758663 -4.227072
24.235207 32.688755 -3.5936565
24.33736 32.796936 -3.115579
24.409754 33.236942 -4.9315004
24.213856 33.532684 -4.4523263
24.160461 33.384388 -3.5558162
24.29941 33.369263 -3.1040583
24.4037 34.450924 -4.9482565
24.320715 34.476154 -4.434048
24.308079 34.311684 -3.8036785
24.451748 35.038494 -5.0095315
24.45308 35.10661 -4.572438
24.940716 22.168375 -1.8668172
24.74552 21.926172 -1.2353609
24.76796 21.776505 -0.44637206
24.813189 21.893541 0.08902538
24.853424 22.714993 -2.1368983
24.5007 22.389986 -1.5135828
24.581808 22.452885 0.29034907
24.876211 23.009644 0.8050378
24.760675 23.3529 -2.1604073
24.497625 23.454231 0.47067475
25.023369 23.717274 0.7309469
24.614592 23.901125 -1.832958
24.52111 24.463911 -1.3302801
24.41468 24.565327 -0.88344795
24.502613 24.21192 0.18522435
24.99213 25.089298 -1.2243651
24.813978 25.010296 -0.6434298
25.013094 24.818121 0.373811
25.386711 25.771328 -0.9464187
25.215113 31.1291 -4.109051
25.305927 30.995993 -3.6903775
25.000956 31.97598 -4.909843
24.973509 31.77803 -4.40535
24.736706 31.823256 -3.5806353
25.13086 31.431898 -3.0953326
24.89943 32.64863 -5.139805
24.642479 32.647644 -2.806421
25.064646 33.765236 -5.795052
24.671776 33.39621 -5.227148
24.698795 33.395535 -2.6906872
25.0407 34.712906 -5.8782
24.553429 34.600002 -5.191554
24.507093 34.62617 -3.7629616
24.677765 34.314293 -3.0222628
25.145687 35.45837 -5.83531
24.808296 35.563026 -5.3263884
24.626734 35.489464 -4.563246
24.702562 35.253002 -3.9226193
24.955347 35.963596 -5.026515
24.936607 35.959225 -4.5958796
25.479683 21.474817 -0.37709045
25.496881 22.013126 -1.9225135
25.616304 21.734814 -1.3842111
25.376657 21.546545 -0.4179503
25.405413 21.846758 0.32655895
25.430391 22.1204 0.61219513
25.609747 22.97932 -2.5939941
25.57975 22.681147 -2.4128644
25.519852 22.667072 0.959216
25.633886 23.305826 -2.5538359
25.246653 23.088942 -2.45581
25.765371 23.454317 1.3149668
26.130714 23.874924 1.5964903
25.416134 24.206156 -2.224516
25.853453 24.34497 1.3090928
25.73212 25.524506 0.5252191
25.77782 25.33042 0.87438977
26.089464 25.82282 -1.9035169
26.004337 26.25536 -1.2454058
25.75079 26.129023 -0.3929736
26.11509 26.43197 0.13470456
26.350742 26.316647 1.0387377
26.070473 30.324469 -3.5102935
26.28063 30.140442 -2.961169
25.381182 31.14867 -4.562724
25.629152 30.601269 -3.28935
25.944445 30.519667 -2.900108
26.212017 31.043432 -2.0382543
25.52194 31.666956 -5.1474113
25.667984 31.356676 -2.354597
25.9568 31.658348 -2.0487947
25.852097 32.858032 -6.0988593
25.914434 32.67369 -1.9226604
25.319227 34.06256 -6.15971
25.974432 33.145535 -1.7319782
25.940634 34.414333 -6.5981402
25.443995 34.136646 -6.1801286
25.462177 34.08673 -2.172629
25.507294 35.511414 -6.0025806
25.383352 35.85688 -5.708106
25.543085 36.248863 -5.290681
25.570341 36.240875 -4.271377
25.321268 36.14014 -4.154318
26.280155 22.083637 -1.8465856
26.219711 21.812769 -1.4892764
26.332384 21.639153 -0.19838364
26.085316 22.55908 -2.3658683
26.550402 22.66113 1.3069234
26.729845 23.054798 1.6856937
26.248743 23.451105 -2.5630004
26.692354 23.554853 -2.4212162
26.531744 23.793602 1.7237681
27.047949 24.545876 1.9734905
26.260645 25.74807 -1.9145539
26.848364 25.14352 1.8634119
27.162584 26.21357 -2.0227556
26.687979 26.307693 1.2687397
26.900612 26.981375 -1.3257022
26.829817 27.479687 -0.51590514
26.931805 27.165384 1.0688639
27.40437 28.033644 -1.1894395
27.054586 28.096771 -0.3071594
27.273224 28.261274 0.29570785
26.650757 30.182215 -4.2922745
26.85433 29.855358 -3.1119578
27.125278 30.088955 -1.4720376
27.09365 30.575045 -1.5829413
27.287455 31.943151 -7.2824626
26.43586 31.434937 -5.8137946
26.516108 31.378725 -1.7263643
27.284355 32.499435 -7.2969584
26.55641 33.708637 -6.7841735
27.039713 33.625057 -1.1881298
27.414835 34.099304 0.94317955
27.259596 34.825233 0.7073363
27.185278 34.71923 1.6271368
27.344418 34.74373 2.1927202
26.525219 34.996056 -6.5602326
27.337294 35.687 -0.01887548
27.012747 35.56457 0.72185075
26.852238 35.49747 1.5815765
26.879244 35.791046 2.3385777
27.200743 35.86733 2.944441
26.361143 36.288124 -4.004983
26.839323 36.54652 0.73118806
26.68789 36.582424 1.6162827
26.83642 36.42972 2.347214
27.15301 36.4105 2.9251518
27.139133 37.219288 0.7676733
26.947563 37.2294 1.4728459
27.014957 37.105587 2.2817216
27.236765 37.084747 2.749868
27.296328 38.38134 -6.9704638
27.028286 39.057194 -5.8360896
27.232864 38.96964 -4.8075027
27.323519 37.72095 1.4523764
27.270662 39.23076 -7.114741
27.205465 39.625423 -6.370423
26.999062 39.52008 -5.3945107
27.147827 39.510452 -4.8829865
27.294744 40.00443 -6.3899994
27.213085 40.047783 -5.448241
27.286652 39.99404 -4.9627585
27.385214 21.901558 -0.950878
27.102188 22.183424 0.61329865
27.251068 22.616285 -1.8733764
27.684803 23.348026 -1.9963965
27.529108 25.002735 -2.5508087
27.523884 24.505497 2.0339088
27.146618 25.31212 -2.4463317
27.710655 25.450827 2.258402
27.333935 26.793549 -2.155147
27.793682 27.629755 2.101113
28.183363 28.38283 -5.3077292
27.73738 28.549372 -3.524615
27.798973 28.277468 -2.2756991
27.578894 28.642406 0.10636897
28.083832 28.003202 2.1844
28.35333 28.86468 5.4874496
27.979126 30.056448 -7.3787127
28.197323 29.854982 -6.611022
27.822584 29.393993 0.20490748
28.427713 29.5553 0.9268029
28.321606 29.447165 4.5727997
28.172392 29.474121 5.6789804
28.192707 29.611988 6.3249984
28.389868 29.853022 6.784175
27.801397 31.067595 -8.1072035
27.849386 30.41743 -7.454403
27.659348 30.760822 -6.569677
28.412373 30.030207 1.1005116
28.434048 31.01804 2.1888797
28.227785 30.282724 4.993558
28.254625 30.336424 5.135043
28.319834 30.31835 6.4912825
28.207848 31.605217 -8.8973055
27.838024 31.528193 -8.2491865
27.528023 31.655901 -7.44088
27.825142 31.627876 -0.5868542
28.034618 31.228281 0.54399014
28.242342 31.522459 1.3296769
28.358583 31.751556 2.0798936
28.126389 32.398785 -8.946855
27.769117 32.51477 -8.309361
27.38908 32.49312 -0.84917617
27.982927 32.41884 1.1488601
28.01493 32.943638 2.247271
27.848562 33.23492 -8.311753
27.37055 33.487144 -7.584481
27.572021 33.81073 2.1313727
27.899302 33.860924 2.7405891
27.586655 33.91552 -7.2334714
27.765568 34.1765 2.7900393
27.289259 35.63985 -2.7769475
27.888868 35.035854 -0.14049897
27.683044 35.682945 3.2162337
27.972105 36.545403 -6.5166483
27.765646 36.172295 -2.8517494
27.475992 36.23753 -0.10131389
27.540625 36.43519 3.2047715
28.260128 38.045994 -10.112584
28.107594 37.502335 -8.300039
27.496475 37.792763 -7.248508
28.142363 37.283394 -3.0725384
27.423038 36.990448 0.271807
27.449263 37.462666 2.5469427
27.68149 37.089245 3.057238
28.31654 38.65799 -11.524909
28.149435 38.392254 -10.718271
27.871716 38.298584 -9.2526655
27.547325 38.46252 -8.008487
27.577421 38.872902 -4.3151984
27.705292 38.059044 1.5409721
27.630457 37.865494 2.2381916
28.293447 39.971863 -14.333656
28.386307 39.740913 -13.431749
28.386435 39.47639 -12.555392
28.263308 39.36315 -11.691559
28.057468 39.567554 -10.4387455
27.939829 39.429573 -9.596973
27.580423 39.39739 -8.335965
27.509188 39.772335 -7.664459
27.550676 39.79954 -4.430437
27.740074 39.406055 -4.2481256
28.308252 40.802048 -15.076016
28.18052 40.7942 -14.492527
28.195705 40.33835 -13.351808
28.32241 40.404007 -12.665492
28.160416 40.05858 -10.766236
27.810873 39.96177 -8.525043
27.821497 40.35685 -7.4344583
27.617062 40.38775 -6.39302
27.560122 40.445194 -5.4647317
27.596613 40.166077 -4.8108473
27.710068 39.926067 -4.323271
28.185362 41.15502 -14.402994
28.278078 41.24606 -13.601534
28.435472 41.397995 -10.807139
28.174973 40.872086 -6.320456
28.081118 40.78938 -5.5015936
28.043482 40.666985 -5.0950446
29.008238 20.87852 2.1732676
29.235052 21.053318 2.927343
28.308672 22.172218 -0.6440346
29.02789 21.625813 3.1037848
28.149261 22.778362 -1.412469
29.228292 22.821459 3.8855114
28.327042 23.966946 -1.9764496
29.425005 23.576723 3.5112286
28.634829 25.113789 -2.2053037
29.176538 24.997248 3.0119634
29.341888 26.187729 -6.964009
29.417652 26.01454 -6.8824487
29.174967 25.858711 -4.214221
28.416065 25.935453 2.7864919
29.311232 26.578676 -7.170512
29.142357 26.466337 -6.459973
28.817173 26.723337 -5.219953
29.020779 26.673124 3.1705494
29.441807 26.843048 4.202658
29.384958 26.938013 5.381883
29.142567 27.476479 -7.083956
28.680977 27.52193 -6.203102
28.523392 27.382975 -5.4404807
28.468473 27.29052 -4.9327803
29.169018 27.398945 5.2311277
29.09806 27.825172 6.418404
28.906757 28.702791 2.9417868
28.740578 28.68589 4.405203
28.586525 28.514456 5.0762143
28.755438 28.513178 6.6110396
28.660868 28.728003 6.8605647
28.831131 29.93845 -8.074515
28.743217 29.455725 3.146455
28.543392 29.506027 7.011691
28.804844 30.779417 -8.775378
28.522118 30.600317 -8.4394245
28.63126 30.638048 2.2892656
28.916714 30.352882 3.7477677
28.436943 30.741835 6.19242
28.621151 30.211245 7.0079613
28.456081 31.61895 -9.099795
28.666029 31.119469 5.5437493
28.793108 31.001461 6.4234076
29.13713 30.936052 6.9842105
28.622692 32.45755 -9.337034
28.56582 32.69802 2.8704715
28.673428 33.61216 -8.871964
28.503029 33.846104 3.1862833
28.66169 34.901184 3.229199
29.379715 35.700085 -8.236228
28.536234 35.55482 -1.6776307
28.61055 35.368233 3.3310783
29.078405 36.96115 -9.638108
29.265749 36.452267 -8.48041
28.610151 36.466858 -7.457995
28.397001 36.72351 -0.41098955
28.55616 36.642952 3.3527067
28.198965 36.330593 3.518333
29.24574 38.088535 -12.882727
28.643257 37.986553 -11.022643
28.54847 37.792328 -10.441504
29.003105 37.259075 -2.2649498
28.307686 37.274376 3.1016166
29.17662 38.946873 -15.069968
29.127476 38.690792 -14.426662
[...]
POINT_DATA 2799
SCALARS features_00 float 1
LOOKUP_TABLE default
0.91626906 0.8751727 0.9675337 0.92410946 0.8676719 0.9104998 0.9157032 0.87896395 0.80880463 0.7817948 0.78553 0.7427579 0.57570136 0.5928386 0.5969348 0.5904317 0.57354677 0.59711516 0.60340166 0.5944871 0.5899661 0.5914616 0.58305603 0.60399026 0.6038146 0.89963496 0.9531324 0.89858425 0.8443533 0.87629217 0.9582264 0.81895316 0.7149033 0.86509264 0.75613594 0.64174545 0.83271444 0.73330593 0.7137615 0.69572914 0.60609776 0.61526793 0.58012223 0.5134678 0.488146 0.48341483 0.5012536 0.525412 0.54738235 0.5016437 0.51161784 0.55984235 0.49583316 0.54723406 0.56212115 0.5520562 0.5888581 0.5697397 0.5573188 0.59454006 0.6187715 0.6125527 0.56980705 0.63541675 0.62747383 0.8767585 0.8439009 0.90171516 0.88385177 0.7934107 0.7535169 0.77431786 0.791831 0.6629783 0.7518373 0.81511056 0.5182872 0.42613637 0.7169239 0.4459713 0.4546836 0.43587992 0.45702088 0.42135033 0.44489765 0.3669304 0.33416083 0.4001075 0.36250812 0.455617 0.44501132 0.40597135 0.3090496 0.41851348 0.42128563 0.355457 0.3045175 0.35233393 0.4581787 0.3210066 0.3594907 0.44708806 0.47308135 0.56805825 0.61421824 0.6329754 0.6152369 0.6056403 0.7357039 0.80800444 0.8368831 0.7253822 0.53929603 0.41249648 0.658811 0.59267473 0.37951726 0.28053027 0.45257562 0.29629722 0.38246402 0.3087576 0.29511037 0.27877182 0.21087134 0.093816094 0.21506198 0.1762678 0.31108314 0.27243865 0.044360645 0.12448009 0.26053435 0.21309394 0.21610641 0.24228543 0.20788895 0.08484015 0.36940327 0.52713686 0.5169994 0.52354676 0.2994743 0.53784585 0.6127639 0.6527381 0.6874001 0.6603445 0.47474298 0.70808053 0.7817005 0.74981374 0.7072829 0.7300373 0.77613723 0.7536997 0.71924293 0.3916359 0.5453765 0.5167948 0.74215984 0.45214048 0.5320413 0.56142235 0.5506191 0.5342335 0.5638371 0.55666995 0.62370086 0.687163 0.5548894 0.4341096 0.52480656 0.17816886 0.49553093 0.08535175 0.27163634 0.09606966 0.09408773 -0.22433512 -0.15584837 0.11846402 -0.006645182 0.42864746 0.25836402 0.16529919 -0.10925996 -0.12985153 0.32401347 0.49735415 0.53158003 0.5354414 0.32817847 0.27851427 0.1918922 -0.18627794 -0.14411151 0.4543084 0.4784087 0.5378399 0.3653559 0.34119397 0.2894248 -0.07690543 -0.19162473 -0.10371411 -0.016851988 0.35018116 0.3188668 0.0406174 0.0055955164 0.22460347 0.26240575 0.1944661 0.3571202 0.3823817 0.14250201 0.43569803 0.0356328 0.380715 0.595682 -0.012277346 -0.07975134 0.54468787 0.6615081 0.16490544 0.09692964 0.24258515 -0.073297486 0.64478683 0.7042786 0.65846467 0.17404704 0.20161146 0.2245017 0.31337795 0.44874665 0.6882247 0.68466705 0.37789822 0.28239438 0.20316741 0.20223597 0.23536362 0.25515276 0.3392278 0.40817893 0.530409 0.48586655 0.44322658 0.41644496 0.31631488 0.2610125 0.20843446 0.31359106 0.42801172 0.5321813 0.55696607 0.54650354 0.51926136 0.4064662 0.34766346 0.15904146 0.51334095 0.5278468 0.5259937 0.3929882 0.38580996 0.34541425 0.3958332 0.36810437 0.3309357 0.3266857 0.09921572 0.31991675 -0.22010759 0.3920174 0.39959133 0.24146596 -0.12745431 0.37937957 0.3277544 0.24357651 -0.19562694 -0.07815431 0.12592068 0.2926492 0.203923 0.19767639 0.18214355 0.18289456 0.2886255 -0.1418429 0.22991869 0.33672297 0.40094772 0.4322274 0.26923862 -0.10723953 0.5088578 0.32729727 0.33231342 -0.18987095 0.07624383 0.5204067 0.5106513 0.36391762 0.49405277 0.47234905 0.42539698 0.35023272 0.21305564 0.21476792 0.33042017 0.41318613 -0.15487696 -0.2837609 0.46311748 -0.012622474 -0.089680135 -0.023829956 0.3543487 0.5240589 0.5679321 0.11148591 0.117869206 0.11832914 -0.19723862 0.56293225 0.42570013 0.34501952 0.25076225 0.1498174 0.11790702 -0.07310055 0.6229854 0.55824274 0.58151454 0.5762621 0.43397504 0.44025654 0.3577192 0.24903718 0.20764683 0.42254645 0.44691986 0.16391622 0.51410484 0.4932267 0.40124428 0.25522336 0.17186832 0.2389674 0.40362793 0.4695347 0.46921656 0.46884608 0.33516404 0.27509028 0.20437363 0.23539323 0.30420077 0.32149708 0.61009824 0.55744493 0.4872687 0.2665666 0.34575802 0.3636748 0.5829573 0.5185011 0.35937294 0.56475574 0.5093984 0.4758904 0.43817002 0.5331403 0.44420063 0.42414656 0.40226996 0.4038831 0.518407 0.40769982 0.38080513 0.16370116 0.40116945 0.25560358 0.4350729 0.3133447 0.02605845 -0.19769096 -0.064068794 0.4680931 0.44054726 0.4451874 0.34212953 -0.05287395 0.4495802 0.5087985 0.41515827 0.4077088 0.11581558 0.122231334 0.089923054 0.33379424 0.24695185 0.111855395 0.27074444 0.26642424 0.10870973 0.21213976 0.25768942 0.31219566 0.3738738 0.28080535 0.2864982 0.28273177 0.13316476 0.16328481 0.29547048 -0.10820947 -0.15895064 0.30408818 0.40707242 0.3915981 0.19268486 -0.14874402 0.18594033 0.11361971 -0.059730068 0.4216956 0.517997 0.48070842 0.37690717 0.062024202 0.27716443 0.522432 0.477858 -0.012249862 0.026272532 0.041144542 0.39978856 0.42396498 0.46094793 0.37887853 0.09085492 0.14095385 0.05462423 0.3785832 0.44795272 0.23680326 0.2281879 0.22000355 0.17594567 0.4644314 0.35802466 0.39555806 0.41474134 0.62199354 0.6200405 0.31503335 0.27009708 0.36582315 0.3336848 0.6374788 0.39529705 0.2480121 0.35730863 0.3704481 0.3819461 0.6320789 0.59282243 0.53437823 0.46999705 0.3004537 0.3782786 0.39750624 0.5730216 0.54233176 0.46754146 0.5824151 0.5844991 0.5358469 0.4334523 0.40602022 0.57502615 0.3778394 0.37290102 0.3468725 0.49367487 0.38128358 0.35619822 0.54363084 0.41564652 0.028802577 0.48915625 0.56314754 0.61976165 0.444458 0.45043546 0.46055603 0.41825557 0.0913411 -0.11505245 -0.2758704 -0.08033092 -0.074237004 0.34714094 0.44201207 0.5393051 0.5729207 0.57983667 0.36897418 0.0397627 0.43529972 0.50849533 0.49917057 0.35129017 0.3787202 0.03749453 0.1540783 0.46066704 0.4486069 0.27324224 0.25026172 0.23263842 -0.04201869 0.13970374 0.18702373 0.013139842 0.08290285 0.10486907 0.1811174 0.09643011 0.14988178 0.017150462 0.24267192 0.21528369 0.15687159 0.16033202 0.4016245 0.24728039 -0.31541324 -0.20749158 0.44915557 0.41237175 -0.13272968 -0.1151088 -0.03933453 0.41882706 0.42706612 0.025170907 0.07525028 0.4204278 0.32576892 0.2034185 0.5518125 0.48736298 -0.109786026 0.121456906 0.19885859 0.5770922 0.5618853 -0.037173938 -0.25673425 0.0050687045 0.25700408 0.09328193 0.024312302 0.44577944 0.1526981 0.24876249 0.22235611 0.24663381 0.2149853 0.18877912 0.57698554 -0.15652637 0.037237957 0.23084578 0.604229 0.3406951 0.6490333 0.65361714 0.37810698 0.35181358 0.62851596 0.59377176 0.38843703 0.43855494 0.55593055 0.5158495 0.48804492 0.43830764 0.40056723 0.43016535 0.46270716 0.5736493 0.57230484 0.5459268 0.46295837 0.55510896 0.36314952 0.34447408 0.31406134 0.49944776 0.2788154 0.1323152 0.4950803 0.591931 0.62686 0.62670004 0.3955508 0.39337236 0.34269533 0.16317622 0.57488525 0.6247972 0.6030692 0.42417893 0.35856766 0.3950072 0.5572239 0.29565796 0.5315511 0.32952365 0.20904067 0.44216397 0.23659518 0.25023592 0.2707808 0.3382151 -0.013521031 -0.0038185194 0.25644347 0.31918794 -0.0672865 0.14969537 0.29115444 0.007638544 -0.19853663 0.5299018 -0.11191019 -0.013895877 -0.11871643 0.48539835 0.61605406 0.606823 0.5705745 0.45952258 0.43331096 0.04374419 0.046064597 0.59072924 0.66571844 0.66131055 0.6283983 0.41611814 0.119421646 0.0700303 0.027617589 0.33894992 0.5779904 0.66452813 0.6890454 0.43733335 0.368241 0.16397527 0.16249211 0.56268555 0.65555465 0.6840455 0.58100104 -0.2791525 -0.086056165 0.20451601 0.22450858 0.6256714 0.5946763 0.5932059 0.07836403 0.19252272 0.2410888 0.54539764 0.010778695 0.06434598 0.16562836 -0.015515171 0.12705323 0.5945603 0.060855098 0.0072610155 0.14707822 0.30880356 0.6351538 0.603323 -0.16113864 -0.15069313 0.17077686 0.1992951 0.21791756 0.1576893 0.11269073 0.13587211 0.28392392 0.64474833 0.630331 0.27165723 0.15877378 0.65389526 0.59940606 0.46482152 0.5209656 0.43863395 0.47275302 0.48378637 0.4974221 0.49323678 0.5091997 0.4902785 0.49804264 0.49490297 0.5560268 0.5275926 0.43109107 0.5438607 0.53830945 0.49027723 0.35191163 0.30015695 0.28205997 0.48990494 0.16493192 0.17375116 0.3450994 0.509412 0.5640869 0.58827925 0.24195541 0.13020948 0.35204417 0.5684097 0.6161285 0.6084361 0.5766444 0.51020575 0.38222957 0.31175354 0.19578345 0.5804198 0.58364856 0.54612064 0.12568274 0.22886716 0.5207496 0.51890874 0.47636932 0.4963371 0.44602647 0.44793248 0.27977723 0.3327683 0.41385347 0.5932261 0.24415329 0.55609393 0.70724773 0.11641064 0.52179694 0.42604613 0.2835302 0.26476848 0.23336105 0.10745566 0.43890515 0.48566827 0.22260761 0.5469115 0.46838397 0.5835382 0.4203428 0.6706841 0.6085932 0.3329379 0.08488646 0.3819164 0.5075843 0.671311 0.6444392 0.5638952 0.53676176 0.16353157 0.3707774 0.5643436 0.6082691 0.64778256 0.57879674 0.56262755 0.22065958 0.5709964 0.49565905 0.1626226 0.30131572 0.65535533 0.48378527 0.60280776 0.66537255 0.7059722 -0.20707105 0.118945375 0.05708982 0.040361032 0.25572717 0.5854241 0.6874018 0.6796731 0.68891394 -0.07640905 -0.13013265 -0.12709129 0.079865664 0.13215402 0.102373905 0.058828328 0.35325634 0.5438596 0.6810403 0.7099025 0.68124366 0.21327089 0.3851687 0.09461708 0.5651736 0.68575937 0.71590936 0.5376598 0.5075718 0.4474251 0.52805156 0.4827115 0.42677334 0.50347084 0.51008296 0.50990707 0.5029683 0.59797305 0.6068183 0.58367276 0.5411899 0.5433413 0.52861106 0.5196277 0.63170415 0.49142897 0.45932534 0.2969972 0.15815973 0.250383 0.24381801 0.21891871 0.19889891 0.2687548 0.15919575 0.32211474 0.4357589 0.50995886 0.5736458 0.24393737 0.05212007 0.07561083 0.58689594 0.5848122 0.66659063 0.64529574 0.6018207 0.48740393 0.23103362 0.5575059 0.6247604 0.66054976 0.3467362 0.13096435 0.48942137 0.57569504 0.57527727 0.4152447 0.5208391 0.5051136 0.6052657 0.45760852 0.3785979 0.65592176 0.71945703 0.2754165 0.75533354 0.173269 0.7117151 0.27869004 0.6045752 0.6587143 0.3140995 0.17899163 0.32788098 0.3430634 0.32587713 0.45288706 0.27954924 0.48826697 0.5130017 0.361566 0.62843835 0.5875004 0.50142765 0.37973917 0.1369044 0.20669392 0.3202888 0.42869544 0.5122336 0.6015456 0.490354 0.38427466 0.20228636 0.12523039 0.42761648 0.36330202 0.25400305 0.14889847 0.4170257 0.6986094 0.64563245 0.50911754 0.5306457 0.60858876 0.72213554 0.36389756 0.6879606 0.7228817 0.0069576874 0.09132253 0.716644 0.70772076 0.7046473 0.63249016 0.35834453 0.40255657 0.18466574 0.028378986 0.1069412 0.44959944 0.6188779 0.69541377 0.7192799 0.5320959 0.5157068 0.4170719 0.41545367 0.48184186 0.54285836 0.15306103 0.042408176 0.080998875 0.21531 0.50849557 0.53214455 0.51233953 0.4819313 0.46255165 0.4495681 0.54084945 0.5916139 0.5234231 0.27364564 0.5462055 0.5569069 0.5505818 0.5242144 0.6004255 0.64012897 0.6173477 0.5288269 0.6242428 0.6075659 0.09241873 0.09962871 0.19872287 0.2233985 0.21826477 0.2137278 0.10033671 0.06464539 0.18193617 0.16211388 0.082810715 -0.15536284 0.13057503 0.45255473 0.52397346 0.70766866 0.7256514 0.68401754 0.5085325 0.17040947 0.19663829 0.47975993 0.5174798 0.65132475 0.67961216 0.35301533 0.4358094 0.5988736 0.6182289 0.017915688 0.33600938 0.5704054 0.5878547 0.63418597 0.4996988 0.70206213 0.7345041 0.30629298 0.78818893 0.19718954 0.74406934 0.3189224 0.6832764 0.34393805 0.32593292 0.5407193 0.35399204 0.34204823 0.40335494 0.36596215 0.31712878 0.28191385 0.37307572 0.42526206 0.36855087 0.41966292 -0.005709611 -0.07181519 0.2399601 0.26701844 0.2895105 0.09106964 0.040012598 0.21870711 0.047286816 0.3703259 0.62414515 0.5677362 0.7047982 0.64674366 0.573944 0.44356495 0.23721147 -0.13000822 0.67322075 0.70066035 0.65322125 0.60160637 0.46020636 0.37129313 0.70324767 0.6949595 0.63749504 0.59672785 0.23791915 0.25387844 0.3404125 0.5882381 0.6656392 0.6996529 0.55078626 0.5474303 0.55160725 0.50229704 0.39964128 0.35331917 0.36661658 0.40949336 0.1977825 0.30108726 0.31469434 0.5382266 0.5468743 0.542676 0.4741385 0.44434887 0.46494317 0.49708694 0.34725368 0.55186576 0.4867098 0.5120888 0.55430126 0.4537794 0.41835028 0.5733261 0.56529593 0.57002807 0.53123224 0.28539366 0.22318506 0.20552991 0.23698366 0.23731372 0.2454455 0.19393404 0.14393783 0.07674052 0.036826707 0.17047104 0.24493143 0.3475697 0.72639734 0.6833831 0.56897616 0.17981748 0.16382734 0.38490808 0.66712487 0.6899917 0.6879386 0.44402918 0.08962752 0.632177 0.20121093 -0.11093631 0.58957326 0.60506094 0.5631443 0.5521692 0.7017348 0.74751544 0.78340304 0.34786054 0.7170066 0.40846717 0.36408734 0.6405211 0.6963257 0.39859828 0.39756203 0.41843244 0.09372972 0.17180532 0.17173445 0.16508028 -0.22780657 0.12566519 0.33122724 0.19867402 0.3957101 0.4408832 0.51662004 0.44983003 0.64403427 0.6459367 0.58055925 0.5415549 -0.026365593 0.5786644 0.65767276 0.58041334 0.3387882 0.34720528 0.36220834 0.39784962 0.40718508 0.3937534 0.4280647 0.33455554 0.45523363 0.47327062 0.4767874 0.48243415 0.4127609 0.30119437 0.303935 0.29250145 0.25653315 0.29387033 0.29797515 0.24735868 0.23503727 -0.11378436 0.19146846 0.12239183 0.013447135 0.2145905 0.31917664 0.6173301 0.5251197 -0.11423196 0.54025996 0.55868167 0.5057839 -0.09444079 0.13254917 0.5397374 0.39522776 -0.1642949 0.06628442 0.44379467 0.30658883 0.32605818 0.568128 0.72052497 0.7411641 0.36771414 0.5905755 0.6497272 0.41131908 -0.024322387 0.42294016 0.55782825 0.45035025 0.13270794 0.45306385 0.38180575 0.19515258 0.35000288 0.2605979 -0.0066035986 -0.19830942 0.18848097 0.10007889 0.4406649 0.17297363 -0.15071665 0.003718458 0.37692314 0.46639895 0.17840958 0.43617275 0.4258946 0.4763653 0.23930155 0.50384384 0.51073587 0.37648153 0.24278986 0.20784181 0.48996615 0.02899699 0.08703709 0.5146509 0.07486321 0.009102814 0.23136449 0.2927605 0.3344783 0.31665596 0.0663939 0.32853755 0.3938164 0.34286577 0.27602315 0.18910424 0.29438907 0.34870625 0.3501904 0.29750687 0.30584574 0.3464231 0.30721736 0.26055604 0.2610544 0.26973498 0.28088456 0.46352848 0.38127697 -0.14843602 0.29955918 0.29138345 0.46742803 0.1417974 0.065904364 0.2627147 0.4241732 0.37314388 0.34802777 0.1326592 0.10714132 -0.03901109 0.04452292 0.17470771 0.007615242 0.20866609 0.09715639 0.064450786 0.055783547 -0.060698092 0.37432852 0.35541794 0.4354368 -0.10196641 0.4638791 0.43009186 0.36635137 0.3885665 0.3416679 0.23116711 0.2002185 0.08421423 0.16052228 0.21269935 0.35321075 0.11323442 -0.0023332536 -0.37293115 -0.065365165 0.45203418 0.10653594 0.030294739 -0.152157 -0.06658684 0.21050686 0.48641205 0.47770983 -0.04537817 -0.051990278 0.4877227 0.5330386 0.5196741 0.20716095 0.16776551 -0.042889968 0.5399963 0.5452412 0.14229876 0.19213025 0.20852755 0.13438652 0.25475544 0.17891449 0.14068434 0.0474573 0.07261516 0.28473094 0.34626582 0.26331767 0.27935907 0.36879784 0.38456234 0.3829375 0.37493318 0.39215577 0.3142163 0.29580554 0.35656643 0.29030854 0.29050216 0.51657563 0.5080282 0.48289615 0.39128986 0.16246654 0.16433309 0.27371085 0.32180136 0.3174348 0.48300207 0.5075268 0.16605055 0.12839895 0.31912497 0.45501572 0.1065049 0.25191468 0.1448762 -0.0040782467 0.13037482 0.13665009 0.14320494 0.13122655 0.18278572 0.30742142 0.24357548 0.059577797 0.38192588 0.3403908 0.3981896 0.21879396 0.33709103 0.11231084 -0.054912437 0.23979932 -0.06878633 0.19920447 0.04511087 0.22499874 0.10006715 0.31085378 0.074387215 0.41240716 -0.013749883 -0.1876642 0.4429505 0.04589945 0.0008173138 0.49690107 0.44324824 0.08978813 0.06714169 -0.004287461 0.49170616 0.52241933 0.4947167 0.077748485 0.5064262 0.48360163 0.2760297 -0.03998154 0.2643934 0.22187655 0.1498789 0.123971045 0.17956632 0.1303127 0.20419659 0.3104572 0.36617538 0.3545219 0.28284845 0.3781576 0.39303982 0.4502998 0.45783976 0.41225335 0.43000773 0.429623 0.38668424 0.092953786 0.5167992 0.51038975 0.4758057 0.40510267 0.30927694 0.12304023 0.2755555 0.49575073 0.5102564 0.2914921 0.3791467 0.33310854 0.124771655 0.14363419 0.15364018 0.22313967 0.0733791 0.23274434 0.22725883 0.17242421 0.16176458 0.10174426 0.22198199 0.2929361 0.21150878 0.25551438 0.37550077 0.2653923 0.28858766 0.2123397 0.0019845366 0.1950396 0.0866161 0.18946183 0.13823904 0.2643327 0.114077166 0.16760042 0.36419058 0.038139977 0.40393963 0.023375822 0.40427166 0.42153746 0.016293112 0.43192977 0.4316948 0.18710488 0.061184827 0.036812335 0.3587312 0.44936556 0.2482849 0.03792733 0.042327512 0.037099704 0.27799875 -0.34142852 0.010536618 0.25172496 0.029001892 0.24349314 0.24432926 -0.058583803 -0.115295336 0.2586802 0.098815404 0.34354913 0.21040651 0.38492596 0.3880399 0.47962156 0.4712106 0.40652224 0.43955794 0.48256427 0.30543083 0.20728599 0.19627613 0.50107515 0.49875447 0.4200693 0.34123808 0.38819578 0.12543207 0.15971215 0.48132122 0.49906936 0.4340555 0.3369611 0.3738558 0.15211006 0.21828185 0.26542038 0.23504966 0.16189104 0.058455758 0.18592027 0.21089005 0.38052225 -0.02464315 0.24357486 0.44303668 0.1727336 0.41783124 0.22865045 0.3529098 0.15917148 0.16359717 0.16059521 0.21338654 0.24962759 0.21899208 0.17053935 0.39354137 0.08871552 0.39542252 0.14323713 0.38805294 0.21257156 0.2145618 0.2383355 0.32852718 0.22797197 0.030727899 0.050291583 0.27334034 0.2565825 -0.011430606 0.06775332 0.29288748 -0.23267728 -0.17646907 -0.02992547 0.00847507 0.3661558 -0.14381997 -0.17664644 -0.19121271 0.3856188 0.5210142 0.36599272 0.4145205 -0.09769819 0.40158787 0.50143623 0.64023125 0.4422454 0.39809734 0.12631655 0.55737853 0.6317533 0.4434495 0.35123724 0.0896572 0.15382767 0.16034557 0.2689488 0.12834455 0.4833194 0.4650275 0.41792598 0.3036543 0.26154205 0.48137176 0.48564112 0.43619812 0.40220678 0.25447983 0.22015676 0.22314048 0.24796434 0.3044278 0.29634658 0.48613355 0.46332067 0.22384727 0.27426124 0.2469776 0.2625656 0.44643542 0.45660365 0.45885527 0.44389218 0.21450332 0.13921498 0.33959872 0.45436943 0.49204892 0.47730285 0.4074132 0.22408578 0.3064727 0.23454425 0.22322436 0.09603061 -0.014894325 0.20022775 0.16724133 0.26686698 0.18640754 0.28868574 0.43799233 0.36661685 0.38848522 0.49932498 0.41044846 0.47610965 0.3442924 0.36552376 0.1021505 0.08186044 0.17252445 -0.21909831 0.0689377 0.22737597 0.13969593 0.27232915 -0.057179824 -0.24994138 -0.26608148 0.27105004 0.2876767 0.35437894 0.21763894 0.3958442 0.11926715 0.39327088 0.16868412 0.3019684 0.37597847 0.18626532 0.0044774264 0.18385969 0.121085554 0.231638 0.42650086 -0.023500748 0.48878542 0.6015876 0.4815276 0.47095817 -0.119770795 0.17054646 0.696687 0.7081468 0.5004196 0.5087858 0.505365 0.58613145 0.6961976 0.74051094 0.4892763 0.4495598 0.4241476 0.13938309 0.18537697 0.18415825 0.65665644 0.730644 0.13483968 0.17414984 0.15085109 0.18541616 0.19440873 0.4678523 0.45487773 0.25215957 0.25864556 0.43011254 0.48235208 0.5002053 0.45990336 0.4591729 0.4352855 0.3780896 0.309182 0.27661502 0.25853875 0.24349743 0.39620054 0.48817796 0.5080095 0.38679308 0.50238943 0.4958032 0.37145054 0.24674375 0.11898002 0.013259575 0.07418567 0.489379 0.5107074 0.4897666 0.5445522 0.2984575 0.24889494 0.5649258 0.1469471 0.542704 0.59234905 0.059335016 0.12963861 0.19119021 -0.034762774 -0.06801618 0.103433445 0.07732068 0.27862555 0.1454396 0.24593753 0.45846006 0.3753916 0.25537556 0.48454696 0.50995904 0.5000874 0.46125567 0.4904303 0.48121887 0.41586548 0.3410117 0.3979404 0.45700383 0.40931958 0.22470269 0.08296955 0.27112234 0.08330835 0.0154192 0.15553863 0.25846723 0.24015647 0.18910119 -0.1117332 -0.14171627 0.2829013 0.28013462 -0.014240779 -0.44800943 0.25112447 0.27226716 0.24725243 0.028109618 -0.115525775 -0.18229401 0.3515514 0.12855174 0.015108377 -0.1376026 -0.13592485 0.3833838 0.05033099 0.38670844 0.1620928 0.086662725 0.2232371 0.33822238 0.18981689 0.18437323 -0.1634736 0.05423244 0.20903982 0.10056551 0.29606426 0.44529444 0.47755042 0.30583572 0.5614275 0.30038023 0.57796997 0.52940327 0.5715805 0.6615014 0.5316757 0.52059543 0.7496812 0.71236366 0.49924088 0.48716694 0.40285426 0.18575794 0.60724175 0.76635075 0.78851354 0.7752238 0.29796416 0.2602528 0.34959692 0.31899863 0.3373593 0.5828179 0.3118013 0.46742505 0.5287679 0.5604551 0.5847532 0.39389732 0.285188 0.2599415 0.2844985 0.5179466 0.48482555 0.3057069 0.27354693 0.482526 0.122176506 0.4883867 0.5012491 0.033484817 -0.042119