# vtk DataFile Version 2.0
Really cool data
ASCII
DATASET POLYDATA
POINTS 7854 float
28.357447 55.95989 3.7805843
28.377144 56.002224 4.234006
28.314714 56.3322 3.726279
28.349773 56.493523 4.306602
28.398077 57.023994 4.28337
29.141327 55.229424 2.9552548
29.036118 55.059814 3.6323128
28.995012 55.141838 4.332639
29.192953 55.27654 4.9191613
29.21964 55.909863 2.1776354
28.884321 55.7133 2.7365818
28.601473 55.575306 3.6987233
28.620674 55.593044 4.3810954
28.925592 55.51522 4.8953705
29.166264 56.346485 2.0626414
28.739439 56.48382 2.619671
28.475288 56.685608 3.2462935
28.462526 56.409912 4.72834
28.614153 56.54111 5.0582247
29.274752 56.6927 6.277902
29.159227 57.277317 2.2255082
28.94197 57.325172 2.677376
28.595512 57.310947 3.4464123
28.565094 57.29947 4.2626057
29.125868 57.405827 6.3292775
29.35416 57.39098 6.832478
29.110947 58.294518 3.152975
28.994673 58.453865 3.6934316
29.073109 58.4578 4.2047853
29.30112 58.35883 5.6551356
29.32645 58.31721 6.3251414
29.308956 58.86818 3.4735496
29.13481 58.84273 4.117509
29.989525 54.29976 3.9154718
30.070045 54.372772 4.0451565
29.658392 55.28927 2.2855628
29.653484 54.892586 2.8389752
29.584799 54.69701 3.5466893
29.650461 54.711716 4.511279
29.367048 55.12305 4.8346972
30.31692 55.28586 14.59092
29.549932 55.679882 2.1083307
29.798277 55.355602 5.4774065
29.694408 56.03294 6.0063972
30.07161 55.74337 13.894458
29.983244 55.747368 14.427995
30.130388 55.874905 15.048759
29.761358 56.449013 1.8168125
29.708092 56.81838 7.1715493
29.937378 56.450752 13.886951
29.82692 56.44288 14.534641
30.034462 56.489098 15.116083
29.912735 57.49712 1.9375399
29.65647 57.55419 7.2056775
30.118835 57.09634 13.844294
30.023945 57.180153 14.515852
30.161728 57.172626 15.147737
29.801283 58.447853 2.342494
29.518082 58.439648 6.396391
29.692366 58.007397 7.1190968
29.987226 59.30777 2.5621805
29.771172 59.59324 3.579578
29.799448 59.51385 4.319873
30.020493 59.27919 5.359846
30.246675 58.790398 6.985571
30.345367 60.222458 2.5657935
30.333504 61.748013 5.6816664
30.31314 61.55183 7.21693
30.309902 61.913708 8.274236
30.30122 62.61542 5.7072945
30.177845 62.59451 6.7108927
30.12239 62.71308 7.692129
30.235762 62.602417 8.339799
30.355604 63.105305 5.7420306
30.305782 63.194084 6.591053
30.26126 63.11926 7.436888
30.299316 63.077553 8.207554
30.69368 54.322777 3.0072737
30.668865 54.135925 3.7339146
30.867802 54.13037 4.292428
30.490286 54.376167 4.8810387
31.32553 53.78172 12.84647
31.365065 53.291504 13.488274
31.313364 53.733215 14.156571
30.371683 55.143375 2.275008
30.510513 54.636627 2.6889026
30.6497 54.666126 5.271905
31.16284 54.750526 7.5452647
31.336008 54.4129 8.246839
31.016644 55.086254 13.043112
30.76052 54.788948 13.81676
31.225254 54.339195 14.295151
30.91738 54.95032 15.096476
30.68547 55.417763 2.1316934
30.77522 55.718845 7.7214813
31.104498 55.21 8.712229
31.212381 55.69419 8.887362
30.85824 55.57001 12.896234
30.53566 55.634583 15.308185
30.819458 56.015247 15.798932
30.795698 56.299107 8.10465
30.827799 56.436977 13.007432
30.3863 56.72384 13.405859
30.410332 56.47216 15.596427
30.714102 56.53825 15.870804
31.150187 57.691414 0.5444257
30.864187 57.620907 8.367076
31.263567 57.745438 8.722588
31.073637 57.003864 13.077656
30.410278 57.35785 13.862939
30.461584 57.675373 15.597882
30.921711 57.495686 16.109749
31.292233 58.58524 -0.36606735
31.03037 58.529125 0.4024154
30.476696 58.322132 1.6920829
30.98517 58.459576 8.342896
31.135601 58.264435 8.658672
30.887917 58.31702 14.757406
30.753351 58.283752 15.42953
31.003311 58.229595 16.004906
31.353983 59.311565 -0.45338166
30.984596 59.61427 0.6595724
30.60811 59.79131 1.9089152
30.484621 59.176964 7.4197516
30.96024 59.249172 8.029406
31.162333 58.874107 15.617446
31.226458 58.735374 15.953448
30.87683 60.304455 1.7897122
30.502087 60.499355 2.543166
30.74984 60.534386 7.4083567
30.988024 60.471275 8.407196
31.241924 60.76813 8.902981
31.12862 60.80098 1.9248307
30.89509 60.8128 2.2551732
30.809593 60.93018 3.285917
30.760698 61.499657 4.8424335
30.48517 61.579052 8.432114
30.662369 61.812267 8.813973
30.799837 62.48706 4.912955
30.412056 62.734005 8.708422
30.985638 62.49488 9.253274
30.922495 63.50175 5.0724497
30.604713 63.512817 5.5091925
30.521101 63.585598 6.6441703
30.539633 63.564144 7.303355
30.57293 63.398563 8.448601
30.850985 63.20749 8.986965
31.018705 63.783745 5.2037473
30.944448 63.89754 5.549462
30.736414 63.85009 6.541219
30.896414 63.890083 7.53199
30.965189 63.879726 8.166833
32.08967 49.01732 8.851652
32.129246 48.972954 9.581147
32.19429 48.9079 10.086215
31.933464 49.61582 8.739131
31.923561 49.549206 9.647361
32.107403 49.517033 10.333838
32.308853 49.49167 10.8304615
31.965979 50.357292 8.495994
31.86364 50.4027 9.286521
31.949173 50.36496 10.132577
32.251152 50.995922 12.487919
32.394814 50.943848 12.981071
32.249386 51.265 8.64382
32.006424 51.153095 9.1166725
32.07481 51.172623 10.16813
32.080288 51.603962 11.689372
32.142662 51.317673 12.6496105
32.01423 51.891243 13.448705
32.03773 52.039455 13.837381
32.212738 52.82535 7.72878
32.066936 52.95539 8.112521
32.261738 52.161877 9.185845
32.20816 52.420975 11.034436
31.800386 52.814716 11.835754
31.941181 52.219646 12.931374
31.713034 52.67247 13.788763
31.85737 52.798237 14.281798
32.035606 53.17325 14.751413
31.294395 54.28275 3.052196
31.089619 54.082138 4.1738944
31.759071 53.858765 7.007274
31.786112 53.77422 7.6920667
31.819334 53.561134 8.239184
31.701822 54.052074 8.892193
31.914572 53.917366 11.016282
31.587063 53.892677 11.594331
31.510824 53.257797 12.442272
31.5663 53.286293 14.42853
31.529135 55.06593 2.3141963
31.58915 54.57294 4.915029
31.50832 54.434513 6.870404
31.861977 54.63721 11.095183
31.723612 54.466797 11.275341
31.808346 54.61567 15.3808365
32.000137 55.188046 15.913552
31.736326 55.705425 1.9718041
31.466385 55.885303 9.181313
32.062847 55.256454 10.593972
31.739494 55.109173 11.390674
31.463463 55.103012 12.249081
31.76825 55.405495 15.950556
31.571955 57.061424 0.60680586
31.860546 55.8862 11.993936
31.522629 56.76797 12.925139
31.70353 56.69132 16.462461
31.95197 56.621048 16.582825
31.835812 57.8594 -0.7570881
31.617058 57.87702 -0.5525995
31.884575 57.249817 9.218449
31.999132 56.73849 12.803395
31.340977 57.27094 16.41874
31.714674 57.51405 16.617594
31.956694 58.632275 -1.1812098
31.54983 58.303814 -0.6557082
31.430626 58.32753 14.001335
31.514082 58.445026 16.355299
31.915844 58.127216 16.593603
31.880579 59.522724 -1.0552667
31.52103 59.49982 -0.66215014
31.444323 59.961693 8.91705
31.377722 58.75385 14.243741
31.750374 59.136852 14.760069
31.706116 58.923218 16.138216
32.031296 60.00167 -0.94264764
31.726362 60.165634 -0.31475782
31.798592 60.463593 0.526011
31.383219 60.582924 8.880191
32.37141 60.184208 10.005945
32.085 60.64466 0.3133658
31.489882 60.828445 1.6677444
32.20805 61.33932 10.445256
32.43265 61.50235 11.637201
32.3986 61.615334 13.38858
32.356335 61.62258 14.534049
32.39931 61.628223 14.943168
31.379154 62.551414 4.344969
31.390787 62.63493 9.461814
32.409756 62.08342 12.622549
32.369884 62.08697 14.36025
32.383865 62.06216 14.981709
31.85459 62.874573 4.352365
31.535927 63.457462 4.7406635
31.51305 63.186428 9.397022
31.580137 63.89132 5.124836
31.479977 64.14668 5.621706
31.524956 64.286644 6.6005197
31.4675 64.25845 7.4525065
31.823551 64.21624 8.369625
31.71096 63.816837 9.0457325
33.316025 45.248505 5.7295527
33.24777 45.26017 6.0886564
33.283207 46.15241 3.742157
33.124886 45.7832 4.8586855
32.996555 45.705532 5.5714817
33.08998 45.669598 6.3328
33.259438 45.974697 7.148293
33.318424 46.696842 3.1454391
33.10449 46.612823 3.7006526
32.925697 46.48056 4.5639544
32.761105 46.42071 5.5187693
32.77342 46.325706 6.288308
33.22009 46.62209 7.3352795
33.30926 47.178062 3.1480336
33.09278 47.217854 3.6905274
32.9864 47.16147 4.2876444
32.89457 47.29344 5.602091
32.856174 47.04986 6.3577394
33.134823 47.504566 7.136711
33.335915 47.476162 8.590981
32.721752 48.182194 9.302571
32.75468 48.334427 10.033547
33.148632 47.89524 5.5509033
33.184574 48.446205 6.6334887
32.550102 48.494484 8.706044
32.496304 48.573402 9.649335
32.614532 48.627026 10.328267
32.84537 48.873646 10.918559
32.767853 49.644535 7.4888225
32.772858 49.65287 11.364249
33.187717 49.765438 12.770621
33.338593 49.625572 13.345807
32.39628 50.161686 7.724039
32.651146 50.425774 12.558755
32.88621 50.5337 13.391821
33.030342 51.090958 14.131861
32.631653 51.674824 14.064422
33.119717 52.529938 6.719671
32.689705 52.966915 15.050226
31.82997 54.308434 4.3227925
32.8639 53.66532 6.239467
32.257294 54.84207 2.7114868
32.54143 55.87019 1.7278786
32.37381 55.490227 2.387722
32.504456 55.913593 16.414856
32.610962 55.925117 16.593405
32.9295 56.694664 -0.19730926
32.362007 56.153584 9.786324
32.25035 56.470085 16.457226
32.52406 56.547665 16.668123
33.13239 57.81984 -1.8673159
32.89045 57.675644 -1.3870955
33.218933 56.876854 11.600283
32.783363 57.30065 16.81491
32.86123 58.39954 -1.6991794
32.84878 58.35856 9.486349
33.036606 58.121506 12.970961
32.14918 58.541878 16.505083
32.522552 58.017246 16.690023
32.85 59.483402 -1.5816498
32.58197 59.44149 -1.430157
32.40907 59.977978 9.653895
32.565933 59.644356 9.965957
33.370213 59.454243 12.004791
32.889168 59.881035 12.766188
32.854725 59.319 16.098785
32.493572 60.11654 -1.0884979
32.568287 60.53333 10.590206
32.83307 60.239433 11.4244995
32.546898 60.64206 -0.35121185
32.743526 61.084557 0.72925866
32.167526 61.06062 2.0712981
32.08817 61.19024 3.045854
32.61984 61.63705 15.410245
32.91719 61.81634 15.835347
32.583282 62.487625 12.562327
32.57109 62.375416 13.850357
32.561447 62.504776 14.559872
32.80867 62.4038 15.391236
33.176712 62.428143 15.792017
32.48536 63.33793 4.6534476
32.91119 62.851845 11.713063
32.999958 62.923973 12.618147
32.995472 63.016216 13.425804
32.93828 62.94808 14.644415
33.100353 62.911007 15.237497
32.30858 63.845325 5.067803
32.341053 64.234 5.7491937
32.49218 64.458954 6.496624
32.49675 64.31886 8.408222
32.155178 63.792168 9.089555
[...]
POINT_DATA 7854
SCALARS features_00 float 1
LOOKUP_TABLE default
0.68220115 0.6523459 0.6757949 0.6323607 0.592144 0.7111312 0.67911327 0.6276971 0.57429844 0.6834418 0.7216332 0.6900093 0.63910836 0.5872662 0.6479386 0.68709946 0.6709422 0.5961915 0.5621475 0.42533147 0.53505874 0.56209445 0.5912349 0.56017804 0.39652216 0.32764724 0.42055866 0.41654128 0.4040771 0.37825 0.32828745 0.3571177 0.366985 0.6096473 0.5984802 0.6740773 0.68521667 0.6602822 0.57971513 0.57180715 0.62719274 0.6645329 0.48226556 0.4288513 0.71301734 0.72018415 0.687749 0.5583982 0.28000522 0.7523093 0.7824379 0.73870766 0.39383566 0.2695185 0.72510266 0.7892813 0.74938077 0.3445217 0.30708393 0.2640135 0.31296682 0.28356302 0.29457694 0.31427068 0.20353606 0.2435867 0.5190164 0.46475315 0.47558546 0.57591933 0.5704092 0.5865361 0.5789995 0.5977331 0.5976242 0.602532 0.61366606 0.62029386 0.5947104 0.55021393 0.51028746 0.28759682 0.3011586 0.34327337 0.60449815 0.62268364 0.4399231 0.17628066 0.1500688 0.39694083 0.5107664 0.41864237 0.5053826 0.5418917 0.21483265 0.17281789 0.15665661 0.42746913 0.60174066 0.5572636 0.18816395 0.48924187 0.6209141 0.6567359 0.5996568 0.34402522 0.14311698 0.10580319 0.45039302 0.68644595 0.69395566 0.61455137 0.45229855 0.3836686 0.2594848 0.059132323 0.053610288 0.7011832 0.6947299 0.6413131 0.5121796 0.39002025 0.2698437 0.08570453 0.01300247 0.6430769 0.6262286 0.28308335 0.23076642 0.13775185 0.07797572 0.094882265 0.28394973 0.25236017 0.18231726 0.37632775 0.3865673 0.4095673 0.555873 0.5878216 0.53460145 0.61049587 0.61792177 0.6147406 0.61398697 0.6295525 0.63357365 0.6223308 0.6330669 0.6258627 0.6263449 0.63713634 0.41764516 0.3901736 0.36963415 0.45556605 0.4221604 0.384505 0.33096802 0.40015614 0.39709464 0.37111017 0.19849643 0.20754212 0.20104417 0.24847549 0.22699834 0.19453153 0.22496909 0.25508463 0.25663024 0.08000223 0.05402842 -0.030218292 0.12686613 0.22902718 0.2696705 0.29079372 0.28886285 0.28672832 0.5662357 0.5454499 0.11854641 0.12063766 0.08074698 0.061810408 0.11922881 0.16462286 0.2631006 0.31092414 0.4503829 0.41056532 0.10920596 0.057223342 0.09824416 0.34746212 0.32712632 0.34738326 0.10833555 -0.09023614 0.07189724 0.21906607 0.3785656 0.28696346 0.18355702 0.34295785 0.45864427 0.42365617 0.42181692 0.40982816 0.09710549 0.21934137 0.5418094 0.50921464 0.5042875 0.45073402 0.5895664 0.57499206 0.51490366 0.5620105 0.5392913 -0.04428601 0.6322639 0.58836555 0.55667716 0.5848156 0.5453778 0.4585639 0.048219897 -0.06644915 0.49550277 0.3168763 -0.006618455 0.23627144 0.3946026 0.45566434 0.4908715 0.51743084 0.5451205 0.3937791 0.49506396 0.539534 0.5360455 0.59373575 0.6247481 0.6084806 0.62680924 0.634856 0.6343111 0.6084985 0.624371 0.6178826 0.5993625 0.71618927 0.66919714 0.6300179 0.57690746 0.4895321 0.71929157 0.7187687 0.67809796 0.62547386 0.56610173 0.42068493 0.7101505 0.68264794 0.65185654 0.56636274 0.54005086 0.40635487 0.17914665 0.29983604 0.3055668 0.43733567 0.2386689 0.33663338 0.34512264 0.32418573 0.2863826 0.24919252 0.22431237 0.16618069 0.22905365 0.32587305 0.1589583 0.21800286 0.2423123 0.23557788 -0.034930766 0.25176108 0.4588977 -0.056287676 0.33290622 0.15413274 0.27461445 0.31137976 0.30248272 0.29606357 -0.031084416 0.3849419 0.36287683 0.40798056 0.4073582 -0.06471565 0.39319336 0.49674156 -0.017757215 -0.05502665 0.4903534 0.44285822 0.5813785 0.5768845 -0.07799329 -0.11139038 -0.06709881 0.008269351 0.32097077 0.5988271 -0.06526298 -0.04086539 0.5662427 0.43145782 0.32247445 0.2700772 0.52555686 0.5562459 0.39146292 0.4731898 0.5234153 0.57977974 0.5894916 0.53617644 0.29705223 0.3600873 0.43550116 0.5411149 0.57496107 0.57392913 0.5759325 0.54523265 0.4936424 0.5409481 0.52563995 0.49551317 0.612338 0.5960484 0.57961094 0.5249679 0.68392605 0.70153344 0.66741943 0.5546963 0.47778922 0.39238542 0.7034311 0.44465888 0.3655816 0.25111482 0.71947825 0.85102737 0.7005286 0.6539041 0.20838256 0.14580543 0.1806324 0.7303591 0.80573195 0.63409126 0.54539454 0.17670637 0.20720527 0.2336074 0.27131274 0.26539826 0.1398105 -0.026492022 0.2594233 0.2712951 -0.14785579 -0.12582466 0.26378575 0.2220217 0.22020304 0.7168182 0.7177032 0.68959033 0.61339724 0.35532692 0.2029139 0.16934091 0.15854234 -0.15539709 0.72181875 0.7396637 0.7252355 0.6091507 0.1681189 -0.35376477 0.006459305 0.68125165 0.7011883 0.7090168 0.66072357 0.3889304 0.17387529 -0.023737133 -0.17636126 -0.21750675 -0.31456655 0.036880963 0.060070455 0.6083715 0.5651324 0.18156812 0.22851726 0.091019094 0.23834248 0.28247717 0.3254369 0.4899525 0.3180528 0.3612106 0.54071593 0.14524576 0.5670862 0.44412553 0.32611412 0.23756596 0.04232506 0.47416234 0.56541234 0.30576253 0.4617811 0.10307678 0.13088918 0.2922827 0.3738732 0.4654011 0.5478379 0.54904383 0.44608435 0.34662634 0.2735852 0.09375331 0.45990282 0.45486975 0.4201854 0.49747676 0.4898674 0.57657593 0.5363729 0.52938217 0.5156812 0.49480748 0.39910233 0.59989226 0.61304706 0.34571886 0.30217695 0.57068264 0.65802336 0.79986227 0.9176904 0.96284133 0.5495013 0.6312584 0.19705682 0.5812241 0.63321775 0.740427 0.8958529 0.9522388 0.9530785 0.5698756 0.14955221 0.16622885 0.5562134 0.6278908 0.6667519 0.8195375 0.89296305 0.88367534 0.59554064 0.44043612 0.17794749 0.22576462 0.2613371 0.56705415 0.62284756 0.6554528 0.7391168 0.8164686 0.23759742 0.2656875 0.21233253 0.5948695 0.62701744 -0.23321328 -0.19676912 0.31043148 0.40504453 0.48324734 0.63606143 0.6008973 0.49056298 0.34974837 0.17373508 -0.17519833 -0.15018938 0.14113027 0.09245256 0.41217598 0.52513254 0.5547626 0.4105298 0.6800916 0.6788603 0.2157948 0.17303008 0.15254018 -0.2064199 -0.07631627 0.5164946 0.571658 0.56808424 0.46941793 0.68063134 -0.20710236 -0.2849527 -0.13835947 -0.0950021 0.50688756 0.57215893 0.58943313 0.51408666 0.64766896 -0.047838822 0.58073723 0.5218479 0.32204133 0.10834799 0.11176963 0.21498723 0.2594785 0.09364434 0.4538411 0.05366067 0.46162802 0.39895594 0.26224127 0.011642 0.29604715 0.20287491 0.09271376 -0.21300617 -0.24022648 0.2641114 -0.1509424 0.4881872 0.21089493 0.35843566 0.45350096 0.35405675 0.3251234 0.22840767 0.09677049 0.06342093 0.13752167 0.32333928 0.3761536 0.40372357 0.43895388 0.41158384 0.44925278 0.41296905 0.4188619 0.4120763 0.39766577 0.34265664 0.7866498 0.85738564 0.88811934 0.40264112 0.38469964 0.26758084 0.20449725 0.5220511 0.63794786 0.8155415 0.8855578 0.93533397 0.9319043 0.31988466 0.41977987 0.08742028 0.44214052 0.512869 0.9412559 0.33313295 0.29014182 0.011552523 0.076785855 0.13751617 0.18362808 0.39708978 0.8033844 0.86983085 0.09234649 0.26727957 0.5228286 0.67873025 0.7372553 0.7833922 -0.057592504 0.08454908 0.1302249 0.0816251 0.554944 0.42001247 -0.3337462 -0.29682928 0.07879346 -0.00510896 0.26007494 0.23248672 0.21944827 0.20697206 0.24442576 0.23923673 0.199285 0.5296543 0.55815685 0.50424445 0.37067872 0.23208591 0.16364974 0.14404394 -0.24207655 0.24275918 0.23903568 0.28712675 0.20260833 0.059465654 0.5787649 0.12771997 0.11125757 -0.032088466 -0.16991125 0.11818758 0.13166218 0.16238219 0.2518167 0.3995837 0.2123251 0.114225954 0.5932018 0.62234664 -0.16760546 -0.14277038 -0.19108681 0.2522743 0.4780395 0.44311506 0.5619101 0.5857527 -0.19902256 -0.21803296 -0.08608729 0.44946072 0.55211437 0.52413666 0.48812878 -0.24953005 0.33976054 0.2524384 -0.059667975 0.4130671 0.08327455 0.17766637 0.30804533 0.44793084 0.62595534 0.20846069 -0.045710593 0.26762772 0.43539017 0.56325054 0.69791687 0.66545033 0.3497094 0.34071296 -0.11239127 0.5571311 0.657182 0.69797134 0.6872774 0.63565254 0.23642047 0.2622335 0.10182076 -0.041236766 0.59729564 0.64976186 0.6728784 0.12341373 0.040469423 -0.015037604 -0.2136556 0.027220622 0.5827567 -0.24516106 0.18254094 0.014135763 0.26181155 0.2763483 0.16044992 0.20245941 0.10817909 0.030383838 0.039998513 0.07783405 0.22883038 0.11800596 0.3731858 0.37598383 0.3461824 0.35615587 0.36922657 0.33921036 0.25087446 0.723199 0.81503296 0.8507031 0.43515575 0.28003564 0.34322172 0.23276138 0.10377535 0.08623226 0.37476295 0.43161958 0.55541646 0.8744937 0.89905846 0.4340322 0.37515083 0.052377883 0.16303842 0.20738599 0.22517906 0.28696534 0.3758485 0.88320327 0.41111013 0.18354937 0.19161204 0.18467624 0.2635974 0.82307166 0.3869598 -0.000883393 0.013154464 -0.007148087 0.019393362 0.25938272 0.6833423 0.7665507 0.350372 0.0048572477 -0.174012 0.15947741 0.14743961 0.13469638 0.070206314 0.021654205 0.3642129 0.5468398 0.38418093 0.2659407 -0.04932224 -0.22626813 0.20174856 0.2105373 0.31400293 0.4515198 0.4521801 0.2804737 0.16290322 0.01639998 0.4856223 0.058249384 0.15791346 0.24886885 0.44880503 0.50614554 -0.23633997 -0.042853538 0.26072216 0.3391047 0.50625056 0.59514636 0.5138824 -0.2477124 -0.10852118 -0.10835442 0.3920846 0.39274627 0.30620694 0.17105792 0.25760353 0.3146244 0.48241815 0.41124588 -0.2950376 -0.068496615 0.018373683 0.35199618 0.21761684 -0.345539 0.014433587 0.073723674 0.49919224 -0.101992816 -0.08733515 -0.021034744 0.4455337 0.47807378 0.11297057 -0.102459036 0.2252366 0.57334626 0.23340842 0.13644034 0.44669408 0.61289275 0.11949269 -0.024726905 -0.06690756 0.50629836 0.5354681 0.61149585 0.64620936 0.6217965 -0.09406863 -0.037073582 0.45814723 0.53724384 0.5869273 0.59579957 0.1373204 -0.054009438 0.056844465 -0.021850154 0.15585828 0.06726741 -0.04934875 0.06079731 0.0048691463 0.0015993128 0.007800881 0.010574728 0.002895616 0.19341366 0.17801675 0.007434086 0.2672297 0.35505527 0.29453382 0.33992916 0.35013217 0.30557436 0.21188033 0.49102372 0.6541843 0.72149116 0.79804826 0.53612244 0.49944025 0.45541227 0.33832496 0.13545804 0.12324701 0.15511583 0.16910553 0.10442601 0.1800927 0.2165681 0.24893373 0.25206864 0.28865063 0.34784806 0.48005253 0.8019252 0.5063044 0.4606728 0.15300538 0.22418758 0.23876883 0.24623977 0.20619856 0.2959463 0.71639705 0.7777977 0.4919343 0.47080368 0.13478436 0.6314323 0.7573346 0.064769834 -0.058060113 -0.059584673 -0.026366524 0.010926358 -0.0014892854 0.34395266 0.04725734 0.3599198 0.35148275 0.31136817 0.24096845 0.11016857 -0.1114086 0.13887641 0.37334746 0.37531027 0.3587855 0.4904341 0.69614553 0.7568659 0.39087415 0.67087185 0.74041915 0.41359013 0.0761365 0.20412332 0.28774065 0.52217996 0.65369946 0.03175933 0.18125647 0.1008861 0.25107288 0.1874241 0.4074438 0.19660571 0.41221273 0.4140665 0.444935 0.30171022 0.03205327 0.51343465 -0.19627099 -0.174431 0.041389786 0.14867727 0.23834796 0.5866955 0.5622648 -0.12555769 0.15076028 0.25856507 0.15977564 0.3866021 0.3897771 0.45090765 0.50460875 0.07947271 0.3114895 0.3605882 0.3535444 0.1143927 0.14782134 0.3745196 0.38673994 0.12831452 0.09611349 0.03250931 -0.004201319 -0.05858175 -0.0958528 -0.038970858 -0.009610271 0.2506231 -0.023200734 0.0033546053 0.2534618 0.40436682 0.3884992 0.3316182 0.43879884 0.47319764 0.44210774 0.24999392 0.31258792 0.31631172 0.28310555 0.14404482 0.21807802 0.21742532 0.21803764 0.4910868 0.5562432 0.5458385 0.50650537 0.23936932 0.22505417 0.1698519 0.19235148 0.2213676 0.21011637 0.09842169 0.19220172 0.23985082 0.20579538 0.17364274 0.13580489 0.17177844 0.41737288 0.48166436 0.5619384 0.5350724 0.54987675 0.090749264 0.023685217 0.10307892 0.38543215 0.5212267 0.50677675 -0.1266605 0.047348484 0.35073882 0.55939424 0.36767298 -0.09963683 0.16810377 0.05501379 -0.09357458 0.07395515 -0.04031156 0.2822071 0.23825109 0.15553138 0.08526753 0.28041092 0.2632687 0.6960187 0.21429802 0.78189504 0.27067056 0.19448861 0.78171015 0.11862318 0.6888605 0.7546686 0.24051869 -0.17377605 -0.031225502 0.16602851 0.5463927 0.6225996 0.47293642 0.34601617 -0.17887262 0.5158907 0.13990626 0.01892316 0.5146903 0.44382092 0.15971367 0.44631487 -0.17398447 0.33389184 0.30542862 -0.2109153 0.40256602 0.61610985 0.49915868 -0.14912836 0.21126902 0.34397802 0.3562199 0.58499587 0.03239944 0.33034042 0.21083866 0.22685999 0.30723804 0.08738349 0.12544063 0.34717253 0.3744897 0.36713243 0.11659007 0.089138664 0.032107566 0.03306672 0.02328528 -0.05642554 0.2642286 0.06391892 0.27617687 0.03073077 0.007732831 -0.09479797 -0.06633565 -0.02130641 0.3752192 0.39214885 0.4313029 0.49452263 0.4796814 0.45035303 0.4926648 0.48909992 0.28388393 0.27573013 0.27713215 0.22443157 0.23749316 0.24704753 0.17166442 0.22088996 0.25855392 0.04597642 0.08086632 0.1325193 0.55325377 0.5129103 0.42382503 0.25229418 0.18939826 0.24156475 0.26626495 0.22360583 0.18322457 0.22826159 0.25465563 0.2555438 0.099882945 0.1954734 0.2069925 0.09501164 -0.016150616 -0.061867718 0.043351732 0.06394138 -0.06795338 -0.062407836 0.097278304 0.28116366 0.33764943 0.28363878 0.39927933 0.5317164 0.54288805 0.5133399 -0.13896286 -0.06559073 -0.08610085 0.026919067 0.29307747 0.30378458 0.50501066 -0.22207806 -0.036824644 0.14870793 0.13633248 -0.04744908 0.13391946 0.18195818 0.10840659 0.18431151 0.69121706 0.7164836 0.021977767 0.75646186 0.78586197 0.7574456 0.10625106 0.09930759 0.42315674 0.504454 0.38067716 0.5593316 0.04734534 0.18629888 0.22134876 0.56321293 0.5601122 0.11180122 0.2540892 0.5329847 0.43443164 0.13179195 0.23275144 0.20255277 0.1298682 0.5850939 0.44232613 0.43034995 -0.0829574 0.27710134 0.6491223 0.6182312 0.4830767 0.28912297 0.68081343 0.65567994 0.59084815 0.5015731 0.3997235 0.017411657 0.25093642 0.24948497 0.27972856 0.64244264 0.6156137 0.5001656 0.031741045 0.03391534 0.34138957 0.30502045 -0.003684286 0.0147627145 0.02177976 0.059859313 0.14409095 0.23757614 0.050894357 0.08848442 0.09803268 0.033277046 -0.05547398 -0.080606185 0.32062072 0.13819538 0.13620082 0.08737159 0.35805503 0.45766947 0.3885287 0.43043673 0.4690404 0.33948806 0.3513544 0.33950764 0.25682932 0.3080867 0.3291143 0.29112762 0.25540453 0.14266524 0.13772711 0.110091284 -0.01066985 0.1331295 0.14728057 0.083283246 0.34680668 0.2403335 0.23375648 0.26829994 0.2859928 0.27564943 0.21699758 0.24664864 0.090563715 -0.067373775 0.06387235 -0.05510576 0.09265296 0.1174359 0.48321003 0.47548896 0.31947356 0.16055241 0.14619061 0.18615974 0.04243742 0.43734038 0.041551486 0.27060482 -0.0513015 0.25223517 0.22463286 0.021901503 0.023526952 0.5664655 0.048186783 0.03148356 0.694191 -0.039361667 0.69282955 0.0328736 0.69365597 0.14005458 0.46435213 0.31325963 0.5257988 0.38331187 0.35493544 0.5219488 0.26550728 0.41386253 0.44113067 0.48426107 0.4622322 0.09694716 0.25840342 0.43884048 0.07830225 0.19523208 0.62230897 0.22819582 0.23174486 0.67887855 0.16046348 0.19431178 0.21759467 0.6715363 0.65081847 0.57401216 0.40325361 0.12927175 -0.025763728 0.23969933 0.22316507 0.18803039 -0.06790921 -0.0020662993 -0.018947307 -0.04831307 -0.074740686 0.18554161 0.14867929 0.0018723346 0.079620644 0.18201578 0.090755686 0.15523747 0.14729673 0.1153026 0.072875716 0.027690606 -0.06427275 0.08467189 0.35718185 0.15887617 0.118925065 0.27256697 0.3402586 0.34071067 0.3585244 0.3254038 0.31094173 0.34575027 0.36241302 0.32957304 0.26673356 0.088080965 0.18273857 0.24448738 0.030982362 0.09226311 0.07085993 0.10217882 0.1733105 0.22356841 0.11419268 0.07309075 0.059731286 0.1863458 0.23270611 0.24579337 0.269397 0.28693607 -0.080736995 0.06343659 0.24838792 0.26149243 0.26512104 0.27561423 0.23235749 0.039393023 -0.019378096 -0.14064993 -0.038609967 0.24880746 0.24201328 0.15489516 0.0843961 -0.18242921 0.20421582 0.12796447 0.05715654 -0.002827853 -0.22621116 0.5007569 0.09195231 0.12028963 0.13722149 0.12625062 0.14461195 0.11138196 0.11384766 0.053764466 0.45760542 0.037963264 0.4275471 0.27082688 0.10732771 0.14961699 0.43631023 0.22455442 0.4919083 0.40482658 0.46606374 0.3837362 0.46108806 0.4518034 0.39120486 0.2736783 0.38538516 0.4581666 0.48615468 0.37243158 0.0064950874 0.10561162 0.27365354 0.3585743 0.48295587 0.5458697 0.17205915 0.5921934 0.072733015 0.17768875 0.6203451 0.5464615 0.36288238 0.22713046 -0.06312797 -0.13362998 0.10954676 0.070544146 0.118777744 0.2933465 0.05943726 -0.09021086 -0.034921944 0.021194108 -0.2661408 -0.29938707 -0.12800089 0.035943285 0.024899319 0.07825346 0.12771745 -0.0040295385 0.21641186 0.18204583 0.1699733 0.15209213 0.0745751 0.095021315 0.070307374 0.040120225 0.20878944 0.30876648 0.32573283 0.30472004 0.21074331 0.26549667 0.19687675 0.021709438 0.1662115 0.1171283 0.21884649 0.04045415 0.08791102 0.1768156 0.22381225 0.23279296 0.058057375 0.23706974 -0.01206027 -0.008208215 0.2662666 0.26122904 0.23369363 0.0034027398 0.23154552 0.44755265 0.23193422 0.17502603 -0.21002631 0.2623635 0.3096866 0.441675 0.46833402 0.47890514 0.028898925 -0.08559618 -0.067765065 -0.14641804 0.27950507 0.3268919 0.4278165 0.50548977 0.5037394 0.17638522 0.14227882 0.044681437 -0.11736973 -0.36327645 0.24936762 0.221078 0.0033829063 0.04498721 0.24414225 0.1976732 0.17042068 0.17778708 0.1563911 0.07994133 0.025823243 0.10580842 0.09478098 0.052684262 0.01806229 0.10011284 0.05805235 0.18054308 0.3780433 0.32412845 0.3898083 0.284306 0.42999643 0.2225266 0.41482937 0.47405463 0.2800872 0.10564668 -0.17131507 -0.039910343 0.16283286 0.2558765 0.31046194 0.4009478 0.15000859 0.10033568 0.4159887 0.4898939 -0.06478078 0.5458435 0.50259465 0.40464213 -0.020041838 -0.22273317 -0.11275035 0.4201622 0.31930307 0.16623986 0.034342602 -0.018652346 -0.057009533 -0.2757541 -0.29739666 -0.06831771 0.046737965 -0.054422162 0.015335429 0.14101015 0.015134931 0.23138624 0.23987353 0.21781754 0.13882127 0.043431714 0.038827803 0.020204498 0.102850504 0.071395256 0.08318423 0.2466583 0.25738576 0.26089483 0.23523104 0.1397434 0.10844209 0.15600225 0.26895964 0.15534358 0.18248993 0.13962074 0.20082933 0.22733164 0.23484583 0.18792984 0.036482356 -0.0045489026 0.0777637 0.10488875 0.18978438 0.0511282 -0.09205339 0.064257 0.16178197 0.18266103 0.04158269 0.21143112 0.20565504 0.22298586 0.08069433 0.056035865 -0.20986964 0.18239951 0.24364604 0.18207753 0.2798374 0.3038605 0.44698998 0.46830875 0.44584867 0.31610167 0.39016145 0.42293295 0.45261613 -0.0918653 -0.05156535 -0.10347296 0.31491643 0.29324517 0.24706101 0.30836102 0.4745612 0.3039165 -0.148348 -0.18986228 0.27939057 0.21436307 -0.121085055 -0.28742015 -0.33804145 -0.2553588 0.23731145 0.21841271 -0.1932618 -0.25065047 0.16376443 0.1974934 0.14639527 0.17975324 0.31680715 0.15766278 0.01876074 0.21881098 -0.08506271 0.3320192 0.29489747 0.3787005 -0.06234935 -0.25355223 0.15611799 0.22195695 0.2903731 0.32737944 0.23300502 -0.105015166 -0.05335927 -0.07211077 0.41221184 -0.20606914 -0.2135421 -0.04995233 0.49956685 0.37322515 0.30242428 -0.06862523 -0.09616468 0.3477112 0.10248113 -0.04056243 -0.14663231 0.086481646 -0.022415325 -0.09295848 0.14851388 0.16093686 0.15241721 0.1741774 0.17596993 0.17140311 0.21512663 0.08195764 0.012993574 0.14225693 0.23725529 0.34400356 0.2310378 0.24662721 0.17120597 0.08903748 0.08361924 0.12290136 0.18364704 0.25230518 0.3260594 0.3712208 0.23761895 0.26196223 0.25183728 0.21332425 0.1055799 0.15088923 0.19600351 0.6591909 0.67045736 0.6619147 0.043296102 0.06879753 0.09586124 0.09369989 0.10838478 0.14952677 0.1583567 0.15779519 0.61831015 0.6454766 0.6745647 0.6467098 0.6097511 0.05815851 0.14672083 0.11221934 0.13032834 0.121893 0.5549654 0.5997431 0.6157969 0.60801643 0.5394433 0.07052365 0.12656526 0.48559815 0.46658808 0.5015608 0.42104155 0.42807478 0.019658966 0.10223992 0.15283932 0.34812784 0.40618542 0.33543903 0.270225 0.22813615 0.18426192 -0.21881148 0.14787745 0.17920554 0.6776123 0.23106797 0.27527136 0.42632562 0.24191613 -0.015715308 -0.22066346 0.21375 0.23057851 0.18254279 0.2612641 0.36903393 0.020097889 0.25465068 0.33297157 0.4619832 0.46040183 0.4376961 0.087943755 0.30396017 0.21620938 -0.04336734 -0.20738403 -0.08409475 0.2728762 0.29593298 0.19877124 -0.054823443 -0.14052473 0.2858171 0.09640222 0.07262725 0.23207545 -0.25458226 -0.34440273 -0.40883416 0.12724982 0.19161767 0.13316043 0.2006112 0.0421728 0.13964993 0.26671124 0.36166024 0.458117 -0.29828885 0.1409089 0.5231594 0.52340907 -0.19185616 0.5494682 0.5460129 0.5334147 -0.15111373 -0.044931024 0.37431473 0.42237055 0.50234556 0.08017907 0.19926797 0.3466239 -0.0382369 -0.13525361 0.1