# vtk DataFile Version 2.0
Really cool data
ASCII
DATASET POLYDATA
POINTS 2749 float
24.3394 22.798494 -1.9257767
24.297535 22.717705 -1.4646181
24.294428 22.819012 -0.7736172
24.296787 23.376707 -1.9068456
24.153473 23.470201 -1.3509777
24.207369 23.514887 -0.73016614
24.356384 23.874563 -1.9780985
24.297401 24.15737 -1.2279652
24.21129 24.012487 -0.89803314
24.392227 32.0642 -4.0502477
24.368168 32.212177 -3.7118723
24.27199 32.57456 -4.1576834
24.227322 32.66435 -3.5357118
24.326143 32.885517 -3.1078403
24.426931 33.84722 -4.8781137
24.222595 33.339867 -4.3053
24.198067 33.350548 -3.5860562
24.347353 33.223007 -3.0854073
24.42516 34.370007 -4.971204
24.424442 34.44689 -4.6109796
24.270695 33.974556 -3.7597852
24.440248 34.99557 -4.4804397
24.978159 22.028454 -2.021611
24.890766 21.844843 -1.3528514
24.854713 21.958704 -0.7572608
25.120295 22.079811 -0.16026236
25.077148 22.715534 -2.6434367
24.748978 22.665426 -2.2398663
24.4903 22.402403 -1.6811565
24.534954 22.50142 -0.5738798
24.795437 22.659706 -0.09357406
25.062595 23.431963 -2.7430618
24.625378 23.31252 -2.3190837
24.410164 23.38536 -0.31507692
24.72455 23.461891 0.07775149
25.136576 23.94517 -2.7479331
24.786587 24.194765 -2.1842778
24.591864 24.536327 -1.5523521
24.490498 24.29805 -0.5025789
24.657581 24.152414 -0.1344604
25.161064 24.813238 -1.8454785
24.644346 24.680862 -1.0327724
25.232458 30.785109 -3.578701
25.257587 32.013855 -5.275081
24.742168 31.828781 -4.3046865
24.795565 31.602047 -3.556197
25.088324 31.568693 -2.8065476
25.29304 32.07619 -2.276182
24.78929 32.560917 -5.061432
24.452618 32.45863 -4.5818734
24.601221 32.546764 -2.8775935
25.051584 32.97399 -2.2985523
25.006662 33.67671 -5.785965
24.71086 33.341885 -5.2474775
24.720398 33.593136 -2.7032845
25.017746 33.245438 -2.3001654
25.049154 34.52714 -5.8595886
24.670095 34.2204 -5.3188534
24.495136 34.781162 -4.172937
25.097382 34.706055 -3.3055937
24.817183 34.16882 -2.9231482
25.233011 34.01483 -2.2912188
25.11632 35.179893 -5.824379
24.75658 35.27188 -5.2177796
24.6928 35.368732 -4.590865
24.817957 35.24626 -3.9238892
25.074163 35.86012 -5.1367683
25.071064 35.87014 -4.5156493
25.220346 35.70153 -4.0023365
25.619438 21.477262 -1.2074722
25.562876 22.263933 -2.608577
25.569445 21.952019 -2.2076037
25.410118 21.565704 -1.4718574
25.459036 21.659576 -0.6749501
25.643396 22.085985 0.10373849
25.624998 22.70534 -2.7961957
25.407118 22.389858 -2.565141
25.905518 22.959488 0.99982977
25.60582 23.456568 -2.947062
25.785147 23.629803 1.1428384
25.626692 23.905191 -2.9274042
25.774382 24.458523 1.0112796
25.415174 25.309528 -1.3319638
26.161747 25.319809 1.0706015
26.077272 26.364109 -1.2655548
25.95883 26.326227 -0.9047949
26.144268 26.730225 -0.3283834
26.040642 30.211187 -3.1712391
25.914719 30.8228 -4.982113
25.523174 30.565113 -3.5045016
25.551527 30.805569 -2.8719325
26.246195 32.08699 -6.177685
25.516743 32.062325 -5.6026754
25.437391 31.38187 -2.4750082
25.72523 32.273567 -2.0174303
25.551882 33.52819 -6.1419115
25.5467 33.769558 -2.0697737
26.171211 34.419785 -6.678117
25.679016 34.19993 -6.425084
25.533037 35.486664 -5.9163284
25.576838 35.184258 -3.1532865
25.398468 36.042347 -5.2203546
25.356258 36.054317 -4.6243906
25.696606 35.99775 -4.1027384
26.203558 21.849022 -2.021131
26.286055 21.625113 -1.5280161
26.483149 21.647472 -0.7961545
26.40259 21.853035 0.007810533
26.206938 22.6926 -2.796739
26.814438 22.463053 0.9695076
26.346045 23.459604 -2.9417903
26.645649 23.188007 1.4841238
26.423553 23.664825 1.6060061
26.803074 25.626041 -2.26647
26.857855 25.309303 1.856447
26.657213 25.855808 -2.279823
26.782434 26.753798 0.6142149
26.536516 26.241264 1.0969213
27.234821 26.25552 1.9425889
26.897186 27.232462 -1.0918875
26.511543 27.07957 -0.7757772
26.89745 27.015625 1.0727564
27.376112 28.22089 0.51102877
27.144798 29.701284 -4.1356635
26.784767 29.87358 -2.64586
26.386799 30.72259 -5.2120237
26.746767 30.403917 -2.1558762
27.268272 31.72011 -7.2508655
27.005375 31.681164 -1.2514358
27.007887 33.54522 -7.2741446
27.437645 34.079212 0.4556506
27.422985 34.002884 1.8099623
26.26703 34.23922 -6.7211566
26.798506 34.13372 -1.8609422
27.44315 34.659508 -0.14113106
27.234226 35.021973 0.36829877
27.088003 34.95007 1.9878511
26.235603 35.15808 -3.047022
26.624517 35.959457 0.8021309
26.77585 35.64958 1.2705649
26.985382 35.794804 2.2812881
27.33699 35.92805 2.7683213
26.79531 36.262886 -5.014422
27.253517 36.326023 -3.8184328
26.76773 36.495712 0.7810892
26.712086 36.479294 1.4590658
26.975407 36.48662 2.3087413
27.27824 36.448116 2.7046888
27.21413 36.922173 0.2656676
27.106592 37.23757 0.85571665
27.006659 37.19801 1.4469112
27.122826 37.078064 2.1853037
27.335392 38.45421 -7.099187
27.211136 38.814278 -6.2646
27.14568 38.61008 -5.4836497
27.17907 38.64922 -5.0529227
27.329935 37.71776 1.4797814
27.394974 39.185482 -7.263063
27.210625 39.490276 -6.401256
27.114372 39.470245 -5.5110536
27.193989 39.439785 -4.966209
27.284021 40.00264 -5.5650477
27.35799 40.003716 -5.123166
27.286074 22.023361 -1.4285438
27.97569 21.835245 0.54454833
27.257824 22.304958 1.077362
28.44107 21.451906 1.8804762
26.805588 23.088291 -2.788103
27.188139 22.86048 -2.293242
27.542587 22.494797 1.4739876
28.294802 22.28496 1.848896
27.067486 23.731863 -2.644234
27.891666 23.908463 1.7587913
27.526571 24.334862 -2.7842023
28.036736 25.006308 2.340526
27.324207 25.011929 -2.6787019
28.409895 28.01258 -6.0318108
28.422173 27.688831 -5.8362274
27.396091 27.421362 -1.6480765
27.453564 27.344542 1.5010183
27.996616 27.39207 2.3329878
28.354002 29.125425 -6.565222
28.10988 28.614765 -5.5472255
27.918648 28.548695 -4.19926
27.708647 28.538555 -3.1340854
27.655924 28.710102 -2.5272918
27.73666 28.185343 1.2551575
28.366749 28.706434 5.6561427
28.315563 28.826008 6.5168943
28.388018 29.005463 6.7837276
28.242268 29.781816 -7.4631553
27.700102 29.35153 -1.2340672
27.888952 29.321865 -0.3951872
28.070267 29.371906 0.75265193
28.385477 29.48522 0.9681515
28.135593 29.874353 5.09019
28.109861 29.419085 5.327376
28.150194 29.569805 6.4078894
28.337166 29.470764 6.8331733
28.174698 30.72678 -8.312043
27.687628 30.809505 -7.7067165
27.664183 30.537312 -6.724981
28.053389 30.454012 -0.48965287
28.333143 30.615952 0.46893045
28.332344 30.820152 1.1151114
28.335184 30.312489 4.7398043
28.243484 30.409624 5.458116
28.146107 30.138668 6.175649
28.153126 31.75475 -8.967092
27.776321 31.60279 -8.311686
27.550495 32.02748 -7.668961
27.564869 31.974789 -0.8468493
28.147684 31.791744 0.3187781
28.071253 32.026436 1.6655824
28.361282 30.75624 6.023109
28.075153 32.260612 -8.918404
27.719692 32.380737 -8.489138
28.078644 32.354877 0.48472238
27.916887 32.7589 1.4871895
28.246807 32.59265 2.1838777
28.088017 32.919106 -8.742605
27.885628 33.14715 -8.246818
27.359598 33.482784 -7.214474
27.596613 33.442165 0.18276116
27.547194 33.516293 1.7916278
27.833649 33.61399 2.3566253
28.157726 33.433537 2.6781716
27.983583 33.926968 -7.774022
27.780554 33.9786 -7.3232007
27.739147 34.186703 -1.4154902
27.783615 34.387535 -0.89630866
27.633003 34.644398 2.5237932
27.885536 34.15797 2.8018749
27.652996 35.225098 -6.609239
27.384512 35.721977 -2.658044
27.794693 35.228012 -2.1164074
27.587458 35.295143 -0.6698694
27.47997 35.292164 2.6271021
27.67544 35.72447 2.9940271
27.774773 36.211586 -3.179211
27.713879 36.444843 3.0351946
28.31564 37.718452 -10.1036825
28.060036 37.958836 -9.375021
27.852219 37.767994 -8.176935
27.879244 37.35603 -7.469568
27.691616 37.038177 -5.2781577
28.289577 37.64429 -3.531182
28.162941 37.21836 -3.1703596
27.375849 36.994354 0.23195633
27.404192 37.364704 0.5557127
27.405224 37.606403 1.6674376
27.510983 37.30879 2.3850043
27.775639 37.104534 2.7701783
28.077152 38.535213 -10.465663
27.936842 38.689903 -9.323164
27.57335 38.75631 -8.142834
27.493793 38.526127 -7.4222236
27.540977 38.603447 -4.4821625
28.125902 38.840046 -4.1113443
27.673561 37.84441 0.9146305
27.789412 37.958782 1.4371766
27.810154 37.77217 2.1041923
28.395592 39.78856 -14.840142
28.219519 39.945793 -14.472198
28.372746 39.49769 -13.270691
28.367302 39.311947 -12.405172
28.17869 39.80551 -11.048599
27.916563 39.491955 -9.169033
27.745617 39.536884 -8.558309
27.495834 39.45661 -7.4020357
27.541523 39.679443 -4.6212173
27.796524 39.50433 -4.2964644
28.281452 40.476578 -15.075212
28.144787 40.42294 -14.667715
28.129913 40.544056 -13.603222
28.291534 40.878796 -11.220617
28.249008 39.887794 -8.939347
28.111284 40.096077 -8.408571
27.741842 40.02095 -7.334707
27.568382 40.15989 -6.3178134
27.574713 40.292812 -5.439961
27.752882 40.22107 -4.9211006
28.321384 41.111977 -15.006338
28.23285 41.18114 -14.191536
28.264696 41.220333 -13.795858
28.358967 41.18811 -12.178214
28.418783 41.28321 -11.672832
28.044416 40.62657 -5.4890904
28.902596 20.952543 0.9657813
28.973131 20.702642 1.3992463
28.903992 20.834623 2.1081426
29.230145 21.207754 3.0167856
28.213293 22.011461 -0.44604456
28.802525 21.502672 0.68651533
28.555367 21.308191 2.178905
28.785355 21.826527 2.7977207
29.281908 21.959005 3.8320432
27.968924 22.725327 -1.796361
28.508375 23.041616 -1.3770256
28.979141 22.182976 3.344795
29.311024 22.434652 4.033765
29.198343 23.44919 3.248125
28.553692 24.79468 2.209463
28.671335 24.947012 2.5956442
29.293108 25.999237 -6.7497606
29.282856 25.80752 -4.672804
29.255308 26.388647 -7.142545
29.196228 26.486887 -6.294709
28.78892 26.831423 -5.5216346
28.800821 26.721663 -4.550706
28.401014 26.212187 2.7293978
29.332293 27.102861 5.8834863
29.279501 27.181334 6.219391
28.777985 27.901289 -6.7939434
28.550934 27.792513 -6.3574758
28.41106 27.154036 2.608759
29.095058 27.283743 4.5436854
28.801136 28.11453 5.09034
29.189713 27.927532 6.834743
28.805012 28.735838 -6.99497
28.907915 28.748592 3.699212
28.546307 28.377363 6.181004
28.789738 28.759815 7.017129
28.85708 30.008196 2.2303987
28.69525 29.462627 7.200761
28.660013 31.025892 -8.967111
28.52642 30.619104 -8.529087
28.620018 30.52718 1.3361354
28.609287 30.60341 2.281023
28.43098 30.615967 6.48897
[...]
POINT_DATA 2749
SCALARS features_00 float 1
LOOKUP_TABLE default
0.87386847 0.8899743 0.86760646 0.84403014 0.83614326 0.820623 0.8125814 0.78531206 0.7955995 0.59046316 0.5963906 0.6094304 0.6096285 0.59883434 0.61682355 0.62595344 0.62545407 0.60240036 0.63037765 0.64168936 0.63447946 0.64317966 0.88921404 0.91724974 0.8976891 0.8111334 0.8334431 0.8606285 0.90158904 0.8770924 0.8108831 0.8158243 0.8369034 0.8037199 0.7502997 0.7931203 0.7786756 0.7342865 0.7390949 0.71822304 0.667137 0.7022239 0.47340864 0.47330862 0.5595657 0.553584 0.5133211 0.4916849 0.5431814 0.58564645 0.57563174 0.53396475 0.527796 0.5660566 0.5716647 0.53592336 0.5722133 0.6054681 0.6370017 0.5558204 0.56992567 0.49094266 0.61078346 0.6373266 0.63620335 0.6016702 0.6275661 0.59958524 0.54996216 0.8799149 0.83258367 0.8629372 0.89892936 0.85094553 0.7020465 0.80838704 0.8377398 0.48483568 0.78320074 0.48259658 0.7614418 0.4670656 0.5644443 0.38400722 0.37157363 0.35078874 0.29818442 0.33878553 0.41109198 0.429654 0.42454922 0.24791509 0.41551238 0.44962585 0.42803675 0.4244184 0.44918665 0.28394082 0.41500428 0.5981823 0.44204617 0.60963374 0.5734333 0.47575063 0.8307935 0.83337474 0.76216483 0.628039 0.77109957 0.33555028 0.7208085 0.3224524 0.34548724 0.55190444 0.31356204 0.49561048 0.30078202 0.32182676 0.25397247 0.23075315 0.25600374 0.24357478 0.059259526 0.13989998 0.19188014 0.27326518 0.21222517 0.27351072 0.043307357 0.16571537 0.2696743 0.34557012 0.25914532 0.037051313 0.18014695 0.35395882 0.48974758 0.28138894 0.63260484 0.6399776 0.6345856 0.62019837 0.34708995 0.107321076 0.6694857 0.7295751 0.7149919 0.68538165 0.62285423 0.6661143 0.69691944 0.71271074 0.36469182 0.4460754 0.46458325 0.45285994 0.6644288 0.3813331 0.47470856 0.52209437 0.5148077 0.54901767 0.5493182 0.66778994 0.317154 0.26778555 0.35847837 0.6991319 0.6607946 0.20136574 0.21107107 0.64096534 0.18206507 0.6194328 0.19674428 0.6371926 0.12875396 0.1471178 0.110648036 0.16910417 0.1589025 0.0826173 0.07851889 0.022918854 -0.025911778 -0.05542034 0.049848154 0.43411863 0.46359944 0.48423988 0.19719118 -0.115969144 -0.15970494 -0.16990633 -0.17426671 0.4890935 0.5137826 0.5425865 0.52814645 0.34435275 0.30393016 0.14852166 -0.18003353 -0.16043307 -0.12974662 0.4029494 0.5111884 0.54866123 0.39216048 0.3799735 0.32993498 -0.15604562 -0.103252515 -0.005233709 0.5272162 0.38245982 0.35808152 0.010289311 0.13453525 0.08134857 0.31907678 0.26746172 0.16819802 0.17782235 0.27705902 0.2990373 0.26104578 0.14274114 0.119640715 -0.26349345 -0.088675335 0.43710563 0.38829476 0.068233974 -0.009405917 -0.15458149 0.12339434 0.52121305 0.5716585 0.022667188 0.65114385 0.18952693 0.23612413 0.2290617 0.1986297 0.09364523 0.051696263 0.007196225 0.610049 0.6344892 0.67229974 0.68700635 0.6706871 0.24003214 0.30148584 0.31776798 0.3410883 0.34343317 0.2638083 0.6225163 0.6272924 0.6437371 0.4427052 0.43565252 0.3248741 0.2624665 0.22343236 0.3030157 0.3200181 0.36802024 0.4852134 0.40598053 0.4618612 0.4575035 0.40103072 0.17289938 0.28480566 0.29854524 0.37128308 0.51146984 0.5603428 0.53409433 0.46237463 0.44010633 0.40693864 0.23203537 0.19675773 0.5445119 0.44050592 0.4770145 0.46902457 0.4333537 0.44217974 0.38833374 0.3814806 0.353382 0.40952387 0.5442279 0.40730682 0.37114513 0.3715782 0.13815892 0.12503777 0.067170516 0.3782242 0.32475024 0.37123424 0.29175717 0.21151085 0.20312981 0.17593911 0.15724535 0.17279217 0.17254928 0.1605812 0.12763557 0.13859618 0.28060484 0.28940552 0.10809278 0.16820544 0.37362188 0.42773134 -0.09398937 0.5034355 0.339847 0.3291914 -0.13498308 -0.098392576 0.53778493 0.5269372 0.35493755 -0.10039339 -0.0707258 0.39967278 0.4717718 0.5017871 0.47172105 0.3776486 0.30738568 0.10700921 0.42174447 -0.2800944 0.52812934 0.09674752 0.1309614 0.05239347 0.60576546 0.14428666 0.13064691 0.17615211 0.05235198 -0.0048944056 0.53563464 0.62646925 0.5938459 0.43110168 0.39998764 0.29982346 0.24443966 0.18963683 0.06367218 0.53757215 0.5073198 0.58512384 0.44067425 0.44795004 0.37340903 0.36109653 0.25862578 0.27106357 0.44099963 0.4559143 0.1914438 0.41094935 0.45059997 0.18370727 0.18503037 0.40866226 0.49097323 0.39689553 0.4107105 0.38856792 0.2583396 0.24973777 0.29753098 0.29515496 0.4619581 0.31722808 0.19024211 0.29688767 0.3573708 0.3639307 0.368344 0.51609445 0.52448577 0.5270231 0.46926206 0.4827929 0.5093854 0.45718408 0.42325467 0.42265463 0.39246967 0.20328799 0.33258826 -0.26614556 0.21382622 0.24972388 0.49466085 0.39918953 -0.05978574 0.43034047 0.46966812 0.4739684 0.3984214 0.05020342 0.05058646 -0.045903016 0.39418957 0.4353217 0.44902286 0.3816422 0.07480694 0.09560448 0.09704407 0.113197535 0.06132797 0.27988258 0.09041682 0.3825922 0.14531691 0.13068064 0.40294927 0.16368404 0.18635166 0.44326115 0.3602097 0.3113554 0.2887262 0.21052575 0.40647215 0.34625652 0.31208614 0.099788904 0.4330932 0.37324238 0.13789804 0.009159565 0.40481824 0.41158834 0.49667817 0.46786773 0.39433402 0.29810128 0.1546162 0.383913 0.48621076 0.45902985 0.041770406 0.022250269 0.44370037 0.2547922 0.24240765 0.1117277 0.38331532 0.4093833 0.24112406 0.2620162 0.39829496 0.29041672 0.26560485 0.47847027 0.38995507 0.27603862 0.52102363 0.5045124 0.17198443 0.24395622 0.37382188 0.33922288 0.5577425 0.52986956 0.4879013 0.42676568 0.21644907 0.33335564 0.38550788 0.38176578 0.5685796 0.5422093 0.49399883 0.39745256 0.28111938 0.35712275 0.56221026 0.5470715 0.5555955 0.51888764 0.5474458 0.53863287 0.4329731 0.39462447 0.37357765 0.05538506 0.2586286 0.5507182 -0.29364127 0.10961832 0.37894285 0.5524069 0.5402595 0.5575417 0.50373006 0.4638221 0.42266077 0.33749223 0.09205987 0.040841676 -0.068185866 -0.14990044 -0.05611128 0.4104004 0.4712585 0.5195569 0.5149431 0.31870797 0.42326874 -0.0082113445 0.2562775 0.41312024 0.46839952 0.48332083 0.24802749 0.2842326 0.37242305 0.3124534 0.16599667 0.27111748 0.2375364 0.17900701 0.18612984 0.20109424 -0.019599652 -0.030504433 0.11982855 0.14503615 0.07970552 0.24018703 0.18008566 0.03681297 0.25663176 -0.034968726 0.21536869 0.08986145 0.4239859 -0.028434575 0.53138465 0.4399337 0.40000933 0.034127068 0.545995 0.5649075 0.39582613 0.42335463 0.002184067 0.32200176 0.13792035 0.5290591 0.48116052 0.22595622 0.51995265 -0.0376577 0.4822895 0.46690983 0.16234416 0.030492004 0.34250182 0.080668226 0.18963253 0.25356492 0.20012459 -0.12254831 -0.005060966 0.1283972 0.15732911 0.22074398 0.23833498 0.19995017 0.51907396 0.46654934 0.15258348 0.212369 0.5468663 0.55613136 0.29885322 0.57051915 0.57390046 0.37497193 0.35335565 0.55097806 0.3055975 0.39091915 0.43049884 0.4214902 0.5143887 0.46840268 0.42464507 0.43822777 0.45313922 0.57433444 0.578597 0.57131845 0.47749794 0.33968478 0.5377924 0.3610465 0.3139843 0.31240284 0.45630473 0.2602129 0.24296619 0.16234706 0.46299136 0.065835 0.16477394 0.45248264 0.54981494 0.575323 0.3691408 0.36401737 0.35316548 0.055947006 0.6169621 0.61524457 0.41686264 0.30660862 0.06308688 -0.00900577 0.53622603 0.24507403 0.4597184 0.17913125 0.40152112 0.114736155 0.2895599 -0.047748834 -0.044993214 0.20347859 0.28537303 0.16179973 0.18972184 0.2682572 -0.069175445 0.13441592 0.23720074 -0.0041450653 -0.026833048 -0.124682724 0.014936894 -0.007147357 -0.25103694 0.082379445 0.4586838 0.46116585 0.42802083 0.26288775 -0.05692768 -0.1505849 -0.03367876 0.42805403 0.5446488 0.5836494 0.4732086 0.46708724 0.057130367 0.03706086 0.020806275 0.34617165 0.47844863 0.6139728 0.64232624 0.65489995 0.10465317 0.1134101 0.041511104 0.024336152 0.33786708 0.55729914 0.67908657 0.7008208 0.48778537 -0.052427724 0.11841598 0.08004619 0.41106272 0.57539296 0.70206237 0.73280823 0.54013324 0.52163064 -0.05270208 0.15071207 0.21569555 0.17406619 0.62026614 0.693654 0.5251639 0.5450045 0.021472652 0.15155287 0.18285419 0.48105085 -0.015752152 0.013708895 0.46652198 0.052071933 0.055001 -0.016026031 0.057257697 0.6341703 0.18963623 0.18925042 0.1259906 0.0414102 0.12182826 0.64847326 0.15044312 -0.082504846 0.13489434 0.1689786 0.17939025 0.12464434 0.6334717 0.24882293 0.5851903 0.5841994 0.34612578 0.5738881 0.56430835 0.45824853 0.41031057 0.38984764 0.5029329 0.47708327 0.46148163 0.44734502 0.48515072 0.4827348 0.48265317 0.56626475 0.57293224 0.5570816 0.4512161 0.35806128 0.5249742 0.5152659 0.30523628 0.2687628 0.25431544 0.23778054 0.41818583 0.21850082 0.19145286 0.15676084 0.43756947 0.52464956 0.5600368 0.16473052 0.10055578 0.17979583 0.5537157 0.57750297 0.59662235 0.6642096 0.61460966 0.5655885 0.3615594 0.3481175 0.21977085 0.5951356 0.59268755 0.52509075 0.2908138 0.48922816 0.4307644 0.3751134 0.38347015 0.33608484 0.35230717 0.30265564 0.5415643 0.11018002 0.5609535 0.6547195 0.005638927 0.0032713972 0.39163423 0.5538195 0.06332928 0.16974913 0.5454505 0.45458618 0.59449506 0.49118572 0.6221949 0.4120286 0.034016676 0.0380048 0.6798308 0.6557 0.40064073 0.0543464 0.07775838 0.4057173 0.47034457 0.68529904 0.64412487 0.5572696 0.16434711 0.10127985 0.56642926 0.67631483 0.69938636 0.5532954 0.14275509 0.153483 0.6479347 0.29100978 0.2974267 0.69667995 0.15115745 0.5443635 0.53914475 0.7086725 0.72446376 -0.079038866 -0.07673679 -0.06707682 -0.0023777355 0.098903924 0.081596345 0.30539924 0.4809072 0.624313 0.67270076 0.7144412 0.6974711 0.25940198 0.07831106 0.11206339 0.12664497 0.068298146 0.568507 0.6421964 0.6893219 0.63414955 0.5831989 0.32236794 0.26546866 0.52986616 0.5486485 0.46650064 0.49570745 0.44773275 0.5313716 0.52031267 0.52045846 0.53029275 0.54648936 0.53196454 0.527467 0.5571032 0.570806 0.5481119 0.5006291 0.508876 0.4962762 0.46829453 0.41942897 0.26628834 0.23576075 0.25545394 0.24610567 0.27380633 0.33547094 0.23539294 0.4577232 0.51902753 0.55203396 0.65574896 0.5840218 0.19557703 0.553926 0.546759 0.6898737 0.65836203 0.5581765 0.44131833 0.24289855 0.53467566 0.6506046 0.6670482 0.30889457 0.2315851 0.5497275 0.45901912 0.3817926 0.64718306 0.71243596 0.6528306 0.71448034 0.6451449 0.70883834 0.2954452 0.65598106 0.28728357 0.4553697 0.37311357 0.52172685 0.307698 0.39642215 0.52599305 0.15433568 0.6068635 0.5369046 0.4440043 0.26839852 0.10296817 0.24261044 0.4334059 0.6010564 0.6234758 0.51021945 0.4768524 -0.02200292 0.35223526 0.111837424 0.1571356 0.69048715 0.4412739 0.7250433 0.69813204 0.23713829 0.56970745 0.6031882 0.73176694 0.7069195 0.71852326 0.12928051 0.13572913 0.08928022 0.0575517 0.1451514 0.3512674 0.655336 0.720697 0.62812036 0.33625725 0.35485044 0.31807983 0.3293246 0.13629594 0.059650935 0.056080088 0.067000546 0.5942783 0.6619786 0.7080833 0.54777205 0.55688775 0.5121679 0.43133938 0.42219973 0.47658443 0.17006785 0.11602523 0.089801505 0.5497148 0.5330541 0.5228442 0.53080815 0.54005075 0.54983854 0.5231398 0.56729674 0.57603014 0.471601 0.5210042 0.51748276 0.6082891 0.60293436 0.573255 0.48236972 0.56823075 0.5410196 0.2245813 0.2488568 0.24941604 0.13033162 0.1240935 0.1856519 0.46158513 0.6488699 0.60563487 0.17090009 0.1060444 0.13635838 0.48135436 0.47694957 0.69305986 0.64128196 0.5663785 0.52237606 0.2272268 0.21858123 0.4535303 0.6370027 0.32740465 -0.085773885 0.5355935 0.53974956 -0.14127451 0.30173492 0.49124223 0.4652509 0.5500709 0.6612775 0.69666743 0.37895256 0.69142205 0.73405814 0.23637529 0.77891797 0.7797892 0.32082522 0.6877623 0.73487705 0.3705696 0.3579802 0.5845391 -0.19787696 0.19411951 0.38991916 0.14009663 0.5327502 -0.013720334 0.04166539 0.4693324 0.49222666 0.21811613 -0.23518535 0.111575425 0.23012067 0.21717912 0.0014021546 0.23276305 0.7188241 0.6782558 0.5948701 0.49821174 0.57148886 0.7162998 0.6781861 0.36614656 0.11274806 0.6683239 0.6958937 0.6562569 0.7592044 0.60074186 0.5480633 0.22502787 0.35984853 0.2737374 0.61022365 0.6792376 0.7348212 0.5459882 0.535384 0.53892195 0.32918328 0.48050252 0.4466794 0.1102956 0.32744282 0.32746163 0.55510014 0.54911566 0.5415468 0.53281856 0.5057789 0.46946844 0.51125044 0.22240853 0.49358523 0.5837867 0.43222967 0.52048093 0.4330182 0.40181413 0.2759915 0.16973253 0.27829406 0.22858487 0.21286702 0.18400449 0.16805834 0.07031653 -0.042325597 0.18657118 0.28049412 0.40266567 0.6322901 0.60431355 0.5484035 0.5475173 0.16313988 0.38265106 0.38707083 0.6010419 0.660705 0.51719475 -0.14566457 0.40643817 0.506361 0.6430346 0.32169852 0.6769362 0.7142384 0.032274157 0.7042982 0.7669313 0.16934063 0.7274077 0.7684425 0.35654077 0.7130683 0.73811316 0.43961012 0.4536031 0.4271161 0.4296706 0.28426024 0.22659102 0.047219608 0.155968 -0.2854052 0.2903275 0.1821487 0.2529196 0.31286597 -0.43638265 0.22538854 0.40096813 0.29208738 0.13786705 0.27163297 0.30122235 0.228231 0.52141917 0.63124233 0.57457364 0.4512138 0.14058203 0.18677339 0.684583 0.6951623 0.548612 0.48614508 0.44296277 0.08539547 0.07887207 -0.043106616 0.73096037 0.54095775 0.51044357 0.44979677 0.46713316 0.37070066 0.17370224 0.09403077 -0.23252124 0.28347155 0.49178505 0.5652115 0.67946804 0.52500784 0.5244237 0.5114671 0.41949388 0.3423555 0.33190495 0.32622448 0.11622775 0.30129588 0.3423626 0.34798503 0.39926165 0.40343034 0.2466076 0.49360487 0.39065218 0.40165654 0.338952 0.2882862 0.32544905 0.3478585 0.31516308 0.23986863 0.22764963 0.22910523 0.22411944 0.22474009 0.19703937 0.08866139 -0.09684891 0.23225878 0.331082 0.508455 0.479031 0.08834748 0.1329983 0.2456724 0.31628892 0.2891881 0.39761192 0.32728148 0.21129858 0.51134384 0.21620719 0.14378662 0.10474852 0.23633885 0.53341615 0.08508062 0.39640033 0.59471756 0.6463598 -0.040139407 0.028644085 0.58198345 0.6885145 0.28601182 0.58286023 0.700752 0.41331375 0.37665883 0.44970477 0.68365705 0.45339462 0.46918175 0.19296731 0.4075898 -0.0030761827 0.061336216 -0.32864642 0.12933338 0.24859396 0.20101674 0.064010665 0.043131676 0.3294543 0.30892432 -0.008304611 0.46721336 0.4216953 0.310067 0.28647944 -0.4472885 0.43877006 0.491014 0.4981597 0.2804222 0.2700095 0.5102092 0.2570678 0.21725978 0.6582186 -0.084488556 0.46249133 0.62169576 -0.13822128 0.22477977 0.5245594 0.18674237 0.29139036 0.27618897 0.25730893 0.2886683 0.32749403 0.23134592 0.19568092 0.18184699 0.26120102 0.3447998 0.31234103 0.3264277 0.3904131 0.30353275 0.32354984 0.34197217 0.29545105 0.25260845 0.28723344 0.25704268 0.23096588 0.2589147 0.387635 0.28207052 -0.15876131 0.28694576 0.23469979 0.51788545 0.2832302 0.11055237 0.10593538 0.059344493 0.17606276 0.028523237 0.06087895 0.111714974 0.00924845 -0.0074346922 0.44991004 0.37820882 0.4615 0.4327178 0.45821935 0.32885504 0.41843742 0.2484186 0.2825476 0.23976442 0.19885069 0.24838915 -0.1999785 0.09731891 0.18820506 0.2061875 -0.15071031 0.3424198 0.16834582 -0.069140516 -0.24456783 0.42668945 0.1666671 -0.15389466 0.48641208 0.46706188 0.26947594 0.24550527 0.44950396 0.5353807 0.50590837 0.25499028 0.46066183 0.5104634 0.5352038 0.52877283 0.3054741 -0.011356369 0.2805625 0.098500974 0.07136578 -0.042359084 -0.0009976588 0.26521736 0.022328354 0.28318435 0.30905664 0.011020493 0.16384247 0.33834398 0.35232395 0.2994168 0.40779465 0.42004865 0.2898091 0.07222606 0.24768808 0.4796397 0.53521407 0.4625076 0.3343202 0.25200713 0.1586018 0.23604195 0.23055525 0.31928095 0.3295106 0.4261657 0.46108305 0.14323129 0.047479965 0.3561657 0.13909183 0.06838624 0.110388376 0.075905405 0.053858764 0.23184252 0.030742496 0.16924909 0.17021617 0.34108466 0.26029912 0.3777265 0.23771492 0.39156884 0.34668702 0.26503327 0.29962322 0.2665334 -0.15301482 -0.037286356 0.23794612 0.060923465 0.3402032 0.4066409 0.43465626 0.14330606 0.03765633 0.12736532 0.48667222 0.44527897 0.096611485 -0.06580907 -0.046590064 0.37050036 0.49653393 0.5171924 0.500383 0.34547734 -0.25605157 -0.25835168 -0.1574314 0.47395194 0.4802201 0.2848903 -0.069903135 0.12324728 -0.03076075 0.16154072 0.089377865 0.019599527 0.016345222 0.24634404 0.10389377 0.32541338 0.40747342 0.41826075 0.3892756 0.4148488 0.4179416 0.45198095 0.43474412 0.38443556 0.41009903 0.430371 0.30229092 0.105391935 0.008300751 0.11360356 0.20768191 0.5054334 0.5487288 0.47562343 0.39025006 0.237757 0.1280108 0.28977808 0.4582876 -0.1513584 0.41715005 0.13873023 0.23182786 0.29629967 -0.17967999 -0.002916174 0.06331343 0.12368137 0.15411335 0.18123555 0.05599612 0.20754348 0.28308827 0.1460135 0.17206724 0.3201875 0.33367428 0.19660568 0.2950496 -0.026538126 0.24089904 -0.00078104436 0.21323177 0.02276275 0.15870945 0.31352437 0.11472261 0.3698786 0.12671894 0.41598848 0.0075930953 0.43030533 0.19607243 0.44816595 0.455603 0.23215711 -0.16266617 -0.007902235 0.13667162 0.38376015 0.31633765 0.31955785 -0.19703148 -0.10652485 -0.03708526 -0.01817802 0.30643138 -0.10295571 0.2201538 -0.14538248 -0.21510114 0.14384617 0.13272515 -0.054996714 0.15553162 0.15313888 0.110130735 0.18463145 0.10789342 0.33538383 0.28214347 0.36332148 0.26504943 0.32811695 0.38416135 0.49906003 0.45550412 0.27592647 0.254021 0.14183229 0.4404543 0.512512 0.11877899 0.43207413 0.4889422 0.4917728 0.47481537 0.4487658 0.36867547 0.31305408 0.38377127 0.4639442 0.47739196 0.3508283 0.41225767 0.070445396 0.3058301 0.1261059 0.23774146 0.015783599 0.14239581 0.11685505 0.29348892 -0.060411125 0.2875147 0.1204166 0.24280947 0.092833124 0.40476936 0.21948089 0.40922266 0.4482214 0.24009341 0.40205312 0.24944901 0.16093098 0.19672859 -0.29217234 0.19340694 0.27760607 0.22875609 0.37040818 0.1472969 0.42195648 0.13053864 0.4245541 0.21435021 0.36421335 0.39423233 0.2476493 0.048099395 0.06906386 0.28803915 0.28061798 -0.03088563 0.14401871 -0.26581508 -0.12762372 -0.08016669 -0.09295946 0.09830272 -0.07803769 -0.005119128 0.22118828 0.4388482 0.011063871 -0.07307549 0.3309967 0.43241256 0.41611314 0.047656555 0.028211547 0.0052416343 0.52995956 0.61885434 0.6288264 0.38459563 0.30704963 0.019527003 0.06995919 0.6130625 0.68450034 0.40718287 0.37048545 0.25880787 0.1514512 0.032491393 0.081574984 0.2228445 0.24048479 0.54083836 0.49569118 0.36027813 0.29070115 0.2394187 0.26331598 0.48868245 0.19378641 0.3952092 0.50803214 0.45366186 0.40537393 0.3104405 0.20113622 0.23806065 0.5314121 0.54913265 0.4352395 0.4333114 0.37034988 0.28587043 0.33229065 0.36454254 0.37162468 0.16392143 0.24809162 0.28183898 0.13366653 0.14150566 0.110673256 0.22184402 0.26826698 0.27964604 -0.030002855 0.2765345 0.15548556 0.0500369 0.22321472 0.36172897 0.31526232 0.5253366 0.44175154 0.4854977 0.1608223 0.4908624 0.25052074 0.42038688 0.34033597 -0.32710934 -0.3393437 0.3085801 0.28813732 -0.29063174 -0.3054441 0.108174965 0.1779078 0.30526143 -0.25973088 -0.14386699 0.28177667 0.24917862 0.29095608 0.36102778 0.4418134 0.19048437 0.43689668 0.2686119 0.37887806 0.25549412 0.25773218 0.14698249 0.15278514 0.055900916 0.24510948 0.18289755 0.22152501 0.27862468 0.0787269 0.12780678 0.23190463 0.44520155 0.19177783 0.34605014 0.26189178 0.4973941 -0.085809745 0.117797196 0.5223926 0.5633234 0.49678195 0.5152363 0.028274186 0.21854126 0.42185652 0.6862167 0.48439777 0.45827025 0.055611067 0.5353513 0.65432 0.72633696 0.7700149 0.44882232 0.38687998 0.2546234 0.08187019 0.14321421 0.14640886 0.68655485 0.74684554 0.16385199 0.16248962 0.32885778 0.3334767 0.39056426 0.47113517 0.53902346 0.43016645 0.4729773 0.48617572 0.3580882 0.49796864 0.5655563 0.6157922 0.22866341 0.32156187 0.6206886 0.34454876 0.17625746 0.025312118 -0.014179625 0.12004572 0.45987782 0.30405867 0.17603599 0.14584725 0.1815137 0.24033354 0.19297674 0.16974145 0.16017024 0.12807515 0.035065494 0.078838125 0.22568795 0.09062276 -0.018187344 0.2174569 0.036669627 0.3479518 0.6344086 0.6717329 0.25434482 0.2242864 0.5512737 0.6869364 0.7193583 0.41973177 0.26336223 0.5789831 0.682601 0.48479176 0.4415282 0.4859054 0.44594464 0.2690803 0.34572598 -0.02375742 0.20834723 -0.16306637 -0.13643773 -0.029139359 0.27302212 0.112569764 -0.28749704 0.284674 0.23893526 -0.13743734 -0.12737046 0.18888512 0.28020433 0.20964888 -0.07904805 -0.07751837 -0.070035644 0.3292203 -0.009584671 -0.112865 0.39258426 0.096547015 0.4164976 0.25546634 0.1843241 0.30500093 0.20964177 0.19735159 0.29589602 0.25687927 0.21106277 0.28680116 0.39030784 0.23184334 0.12598732 0.2763865 0.49201247 0.