# vtk DataFile Version 2.0
Really cool data
ASCII
DATASET POLYDATA
POINTS 7850 float
28.414204 55.706497 3.77207
28.413452 55.764053 4.0600276
28.463041 56.06437 3.1236427
28.422934 56.251335 3.7552543
28.432497 56.151085 4.177317
29.245554 55.11012 2.2759612
29.11953 55.004963 2.673012
28.889774 54.913563 3.5396645
28.865671 55.025303 4.277418
29.22838 54.96942 4.7789545
29.082 55.685978 2.1839461
28.8456 55.52031 2.6748533
28.552925 55.47622 3.4036222
28.600721 55.399254 4.2530103
28.879343 55.742123 5.0934625
29.225044 56.123188 2.0327353
28.725372 56.488903 2.8388283
28.57866 56.53347 3.2984085
28.520252 56.25432 4.4269257
28.80597 56.23567 5.078047
29.314957 56.53828 6.3514576
29.140863 57.386192 2.9571958
28.799862 57.327515 3.5655646
28.76504 57.236687 4.342225
29.162163 57.472534 5.649148
29.269901 57.21712 6.2970667
29.23132 58.35234 3.3988762
29.100628 58.11379 4.499581
29.871794 54.200764 2.9867072
29.643408 54.25603 3.5444586
30.190748 54.142857 4.5252023
29.704117 55.049217 2.0954843
29.611048 54.69879 2.5737731
29.39247 54.430378 3.4608097
29.346395 54.556232 4.3599896
29.620972 54.910603 5.178526
30.251547 55.03162 13.896845
30.256157 55.01094 14.288882
29.523596 55.568092 1.9135906
29.705042 55.79096 6.306677
30.255505 55.638058 13.279504
30.049343 55.564716 13.70643
29.97748 55.680836 14.431222
30.167019 55.80635 14.95351
29.714289 56.53208 1.7636075
29.46026 56.34771 6.6203723
29.751173 56.64077 7.099365
30.290138 56.627144 7.637497
30.210243 56.295242 13.276491
29.976006 56.367764 13.809718
29.917738 56.314865 14.408711
30.16703 56.395687 15.045931
29.450323 56.98271 2.1105103
29.490383 57.626358 6.504741
29.76481 57.25519 7.094751
30.203306 56.878254 13.731513
30.148224 56.97338 14.431654
30.362055 57.185097 15.016338
30.029692 58.31915 1.9395208
29.554306 58.371704 5.1884537
29.955872 58.474026 6.0285563
29.949253 59.358284 2.8262885
29.772848 59.243282 3.3730588
29.784157 59.171062 4.172758
30.265707 59.207775 5.459122
30.30419 59.91545 2.677706
30.332367 60.06074 3.1990435
30.381474 61.824326 4.9586506
30.212194 61.630577 5.6609836
30.043955 61.838852 6.6182675
30.154613 61.77681 7.259219
30.17786 61.898148 7.9898176
30.373753 62.512566 5.1241236
30.270004 62.60424 5.5109205
30.087328 62.37081 6.4654803
30.140486 62.60907 7.605049
30.277225 62.399002 8.264698
30.306307 62.9412 5.752795
30.268349 62.980793 6.4264264
30.300522 63.005913 7.485803
30.31884 62.936733 8.119719
31.437468 52.908146 12.663727
31.388916 53.022156 13.490458
30.510164 54.11889 2.8007362
30.457958 53.849545 3.4913564
30.897205 53.75563 4.278291
31.396135 53.96096 7.85353
31.405449 53.890892 12.046302
31.35821 53.61605 12.570851
31.182674 53.84366 13.468991
31.09888 53.950027 14.328133
30.196545 54.764526 2.0572133
30.728268 54.67209 6.1523805
30.855127 54.959885 7.833556
30.967606 54.647507 12.980888
30.671007 54.4956 13.772601
30.504765 54.705433 14.327197
30.924507 54.81593 15.034231
30.644434 55.54275 1.6120102
30.80659 55.79436 7.682104
30.923796 55.51906 8.006192
30.602415 55.934803 13.001612
30.58469 55.469013 15.250922
30.749805 56.03447 15.6342745
31.16109 57.015892 0.67233527
30.444586 56.28613 7.645011
30.4962 56.43372 13.177254
30.477783 56.515644 15.411638
30.957716 56.62605 15.867512
31.154224 57.66187 -0.15787348
31.065271 57.4537 0.37106705
30.897402 57.696896 8.1584
30.572247 57.54886 14.687278
30.583357 57.32853 15.301172
31.094734 57.552097 15.953224
31.294083 58.581615 -0.4571796
31.055876 58.677166 0.36118507
30.455069 58.045277 1.681133
31.186062 58.59741 8.169497
31.131002 57.809975 13.628376
30.810577 58.122707 14.616726
30.927795 58.183346 15.325714
31.18289 58.21648 15.791204
31.335274 59.064754 -0.56327474
31.232594 59.520576 0.6184769
30.650417 59.465763 1.6481626
30.744337 59.301193 6.457987
30.697706 59.251484 6.8779006
31.196852 58.704273 14.847648
31.252802 58.715157 15.421229
31.013155 60.117203 1.547147
30.6006 60.26549 2.498682
30.53276 60.19014 3.6766222
30.560604 60.222828 4.3867726
30.690563 60.553352 7.441672
30.84431 60.807587 8.308389
31.045965 60.74477 2.5498998
30.66818 61.529663 8.57444
30.836346 61.74802 8.975561
30.500704 62.577244 4.994136
30.490818 62.362507 8.645394
30.738718 62.179573 8.893752
30.814917 63.204132 5.0161967
30.67611 63.36842 5.4708843
30.532907 63.44354 6.360113
30.483564 63.345028 7.389034
30.631945 63.157143 8.373257
30.977955 62.996017 8.897228
30.956898 63.68727 5.603598
30.935812 63.705482 6.3705726
31.01267 63.7418 7.3698444
30.977663 63.68258 7.9683843
32.27049 48.990173 8.111472
32.18339 48.717445 8.741863
32.06228 48.840534 9.42106
32.281635 48.71135 10.208752
32.15789 49.748623 8.089583
31.982433 49.454315 8.515202
31.870638 49.479046 9.529348
32.007256 49.87402 10.100092
32.250904 50.169018 8.178929
32.067974 50.47395 8.778352
31.898943 50.150772 9.749646
32.080986 50.167374 10.403076
32.123817 50.687046 11.054453
32.209282 50.852085 12.3034935
32.35257 50.98831 13.086292
32.37446 51.511456 8.747845
32.151054 51.369102 10.341075
32.126892 51.455296 11.466861
31.869589 51.934143 12.842062
32.190228 51.56999 13.317631
32.085224 52.13532 13.99258
32.06074 53.02328 7.5434732
32.1974 52.804916 8.346253
32.33555 52.37119 10.7512455
31.646006 52.660103 12.64408
31.683643 52.60732 13.304078
31.73369 52.919773 14.160694
31.333464 53.92273 2.8292637
31.555227 53.72753 3.510346
31.440857 53.857594 4.5632567
31.50743 54.00996 5.1719728
31.825989 53.60233 7.004623
31.605963 53.737198 7.479321
31.84257 53.111847 11.543296
31.531927 53.42253 12.8825865
31.621666 53.30353 14.400142
31.454845 53.915276 14.806446
31.863487 54.69843 9.343823
31.721874 54.363342 11.473065
31.581427 54.46558 15.188115
31.386522 55.780033 1.3953738
31.742012 55.512917 9.161946
31.740885 55.106464 11.857221
31.41504 55.036217 12.508137
31.785408 55.658165 15.965623
32.045116 56.75201 -0.57647204
31.496359 56.6477 0.6586738
31.93466 56.90525 8.953335
31.574808 56.40625 12.646659
31.579876 56.511517 16.16084
31.891644 57.59633 -1.0520996
32.024815 57.444 9.165041
31.536362 57.494976 16.206518
32.227966 58.489876 -1.5758301
31.705189 58.369602 -1.0802536
31.920755 58.084053 13.293659
31.389912 58.55074 14.003181
31.395222 58.584553 15.62926
31.588526 58.341488 15.975424
31.94799 59.210186 -1.1454496
31.597925 59.563885 -0.64558697
31.42125 59.517254 8.513591
31.964607 59.48898 9.022888
31.797745 58.804806 13.991045
31.501148 58.968285 14.846103
31.497644 58.720585 15.532811
32.17025 59.828533 -0.77659094
31.96722 59.96062 -0.2880118
31.453667 60.45276 1.5058694
31.963865 60.282326 9.285204
32.45134 60.500103 11.695923
32.4715 60.245758 12.450605
32.379047 60.720734 13.728129
31.632786 60.74395 1.9322696
31.529806 60.902466 2.7549624
31.834597 61.416634 3.2789752
31.70577 61.506508 9.369185
32.270508 61.23898 11.530089
32.302048 61.594517 13.656009
32.289715 61.619694 14.52295
32.35776 61.544712 14.974751
31.553053 62.346275 4.121708
32.318344 62.054756 10.107904
32.407547 62.190266 12.478098
32.39505 62.024097 13.428492
32.352142 61.9939 14.654254
32.41472 61.951862 15.033496
31.517082 63.339893 4.766819
31.199596 63.597546 8.560645
31.495077 63.23487 9.032481
31.53823 63.6421 5.133373
31.43227 63.82357 5.614155
31.684134 64.01981 6.588999
31.501352 63.906487 7.498517
31.3938 63.79313 8.158377
31.936127 63.642727 8.771187
33.279182 45.223946 5.7249618
33.216526 45.29633 5.961374
33.341213 45.89953 3.8691514
33.225243 45.73599 4.556722
33.073936 45.591946 5.6007733
33.081154 45.719765 6.3519163
33.31057 45.638817 6.770664
33.380966 46.455536 3.2175224
33.27662 46.53586 3.571306
33.0332 46.379898 4.670509
32.873066 46.38387 5.5552645
32.97235 46.526062 6.313496
33.245907 46.180447 6.957962
33.21973 47.071014 3.893023
33.155945 46.998657 4.5625205
33.06334 47.028427 5.6782203
33.052193 47.090057 6.8641043
33.417183 47.143677 7.580228
32.704163 48.183376 8.428267
32.828987 47.98216 9.52653
32.70522 48.223747 10.197193
33.169376 48.239456 10.908161
33.26984 47.8012 5.646356
32.59689 48.596317 7.9974847
32.529297 48.53319 10.412603
32.514812 49.02424 10.816478
32.888157 49.1625 7.485601
33.111633 49.618324 12.075736
33.126324 49.999146 13.405306
32.876507 50.228153 7.303268
32.549545 50.450024 12.536025
32.712116 50.836483 13.488393
33.10549 50.830013 14.111543
32.98148 51.85942 6.8680224
32.719284 51.715332 14.2222185
33.0424 51.862385 14.728115
32.542416 53.17145 6.398119
32.2903 52.549168 14.466516
32.82068 52.494953 14.765114
32.1599 54.19624 2.8327117
31.895555 53.710117 3.3595824
32.684746 54.10656 4.5417953
32.306435 53.877785 6.022213
32.492176 53.74838 15.018378
32.330307 55.09791 15.687946
33.218636 55.88182 -0.1808303
32.889088 55.63995 16.430944
32.27974 57.107224 -0.93748635
32.302185 56.53656 12.534622
32.25994 56.268406 16.404095
32.756638 56.488537 16.658167
32.984234 57.488354 -1.8476206
32.390125 57.64536 -1.4556315
32.833363 57.81881 12.739224
32.433945 57.322357 16.46522
32.466263 57.125183 16.558517
32.691067 58.49578 -1.7171986
32.335373 58.9677 9.3315115
33.006657 58.762478 12.575205
32.243893 58.414864 16.131004
32.83214 59.222572 -1.623832
32.51326 59.40615 -1.3281511
32.864426 59.803036 10.633182
32.904366 59.780193 11.694563
32.764557 59.841167 12.32361
32.68626 60.09882 13.5448
32.77646 59.410515 15.19716
32.357967 58.851738 15.787737
32.668118 59.835308 -1.0051872
32.556484 60.170074 -0.36977208
32.334064 60.37344 0.5525506
32.581635 60.378597 12.453117
32.65728 60.079475 14.587122
32.54606 60.7769 14.959929
32.92489 60.887665 1.1148386
32.660458 60.909626 1.3789656
32.558186 60.92142 2.179905
32.573048 61.15222 3.4626482
32.46537 61.756165 10.185555
32.638412 61.520603 15.356744
32.983345 61.363297 15.682489
32.7967 61.939224 3.9598575
32.821655 62.453773 11.562638
32.581345 62.443623 12.961682
32.5676 62.34507 13.694804
32.606266 62.377407 14.58328
32.819023 62.26872 15.202241
33.23564 62.047386 15.776689
32.397842 62.800198 4.33992
32.29539 63.25214 4.7330737
32.287 63.3473 9.0092535
33.12558 62.900326 9.9835825
33.068493 62.9021 12.406149
[...]
POINT_DATA 7850
SCALARS features_00 float 1
LOOKUP_TABLE default
0.62369114 0.6080339 0.62474734 0.5959164 0.57860446 0.61956716 0.64250255 0.65453136 0.62229526 0.5755613 0.60768414 0.6402528 0.64260435 0.6102555 0.52104366 0.56979346 0.59971404 0.5920005 0.5529409 0.5005398 0.35637367 0.49743423 0.5118153 0.48868954 0.39333278 0.36060145 0.3674303 0.37446254 0.6327474 0.64793015 0.569365 0.5789298 0.6240324 0.65492284 0.62476933 0.515326 0.57849514 0.5988059 0.5590546 0.32615012 0.59684074 0.65105647 0.71208334 0.7050612 0.46245295 0.31892583 0.26887017 0.21028729 0.65317357 0.73131204 0.74464095 0.71120304 0.48711473 0.32242715 0.27681598 0.70699775 0.7116211 0.66628337 0.3170805 0.29857415 0.25540578 0.30236468 0.27703404 0.24868786 0.18967603 0.31613123 0.27120888 0.443106 0.43357605 0.52280784 0.53407097 0.547544 0.55998194 0.5673515 0.5669701 0.612025 0.59249514 0.59280515 0.6004139 0.6242641 0.62371385 0.2554398 0.29721916 0.59397113 0.58848965 0.48834032 0.16795327 0.2345493 0.263973 0.33685175 0.38737166 0.552868 0.2539113 0.2142866 0.38451582 0.45099902 0.52878064 0.5297215 0.43659556 0.2067276 0.20997024 0.55462515 0.6376712 0.63701725 0.29599053 0.20726863 0.60765505 0.67298263 0.6188551 0.442038 0.37184477 0.16080034 0.6429255 0.6413752 0.59191287 0.539351 0.4587587 0.29859814 0.10527014 0.5707649 0.5889348 0.5767189 0.55403644 0.5549269 0.4437726 0.34808362 0.14253382 0.13929716 0.5076318 0.50762564 0.37684458 0.3350261 0.23441032 0.14360592 0.2702652 0.3027041 0.3228658 0.43283194 0.4296864 0.57101697 0.5688827 0.52044994 0.61825216 0.62653756 0.6211944 0.62698895 0.61745954 0.57623076 0.6394142 0.632577 0.6195699 0.61309516 0.4297422 0.47922918 0.4945852 0.4229775 0.40810493 0.45919856 0.47831517 0.4053883 0.38298398 0.3844456 0.3945288 0.33753031 0.21959494 0.21266909 0.23769534 0.16347125 0.17010081 0.16769415 0.24998929 0.25691763 0.27539802 0.11102709 0.060937792 0.09831244 0.2502727 0.28471226 0.2969578 0.48978472 0.420469 0.3711042 0.25969884 0.0894731 0.14292109 0.18533549 0.27594072 0.31499258 0.3689381 0.16947392 0.1618313 0.41421527 0.28313845 0.1452596 0.26850387 0.36136684 0.47924978 0.3428085 0.22996189 0.102833726 0.407027 0.54376185 0.48307896 0.02328451 0.5601764 0.5469547 0.5515219 0.33345944 0.49330437 0.5106553 0.51289546 0.5647875 0.551095 0.06998453 -0.007183994 0.35916522 0.4398076 0.48728102 0.53927416 0.5126131 0.37214327 0.06504935 0.11350431 0.14469568 0.36220735 0.32427758 0.28165185 0.17727268 0.27860147 0.25751567 0.4798925 0.49670553 0.5036024 0.44831613 0.28882456 0.42875648 0.49194586 0.53033566 0.541397 0.58701426 0.5851151 0.52877676 0.60830796 0.63038486 0.6216552 0.60152686 0.58322835 0.48729914 0.60202706 0.5896006 0.6538482 0.64294904 0.6098883 0.55618685 0.52560395 0.6719403 0.66923213 0.6369172 0.5925281 0.52791166 0.48591605 0.64112407 0.6069739 0.53736365 0.41438833 0.30192047 0.3820838 0.3765577 0.35170257 0.24584772 0.40003258 0.37943786 0.3707065 0.3464042 0.26001146 0.2216247 0.25310457 0.14636183 0.23171332 0.24263294 0.23623377 -0.011568427 0.24083325 0.21509479 -0.01740937 0.26541862 0.22778413 0.2654634 0.3625478 0.20757857 -0.042916507 0.25860524 0.36193717 0.10741277 0.34472847 0.41142905 0.3217989 0.43654913 0.38521647 0.4476182 0.48362994 0.089941785 0.44951278 0.4356413 0.5269623 -0.11073216 -0.17286403 0.4507694 0.5341154 0.5474123 -0.12730461 -0.06313347 0.027311359 0.20494008 0.23949045 0.37748733 0.52642655 0.49125123 0.42544132 0.17343746 0.27564025 0.41071048 0.31920668 0.30505866 0.23319428 0.07157706 0.22781014 0.5201158 0.513994 0.14635834 0.25654945 0.45158365 0.5051955 0.5489255 0.57129836 0.5688724 0.39976418 0.47688332 0.41130632 0.19391428 0.31356496 0.505852 0.5577914 0.5808077 0.53949916 0.5285584 0.54561114 0.525205 0.44863325 0.5815597 0.5669143 0.6030257 0.60465866 0.59759164 0.56930596 0.4965041 0.638198 0.64325327 0.63721573 0.4837582 0.3778221 0.66651344 0.66781855 0.29163066 0.12162306 0.8114805 0.86157227 0.65399486 0.633976 0.27642235 0.20573294 0.4595686 0.4093886 0.2928006 0.11775785 0.10832551 0.17739937 0.20331821 0.23804115 0.058429733 0.12069355 0.24488011 -0.08429274 0.23858073 0.19353154 0.82070196 0.8393886 0.77311105 0.6402341 -0.19305766 -0.086669035 0.13165894 0.8256233 0.84939694 0.78205717 0.33543485 0.2308895 0.31168097 0.25132585 -0.08282006 0.1340029 0.80007935 0.8139082 0.73721826 0.19541052 0.21227771 0.26517045 -0.28084373 0.11406544 0.07577699 0.6974559 0.659753 0.33397692 0.08984899 0.116440296 0.09426454 -0.1354012 -0.14940609 0.26811227 0.30365944 0.37739104 0.31818044 0.3082947 0.42846644 -0.23828927 0.30122262 0.4683227 -0.257099 -0.2358426 0.25512415 0.49195418 0.49166662 0.15287675 0.49706239 0.42268646 0.36550546 0.25096524 0.14337423 0.5306426 0.57952034 0.55656993 0.34999412 0.35250336 0.16214435 0.117983654 0.102933854 0.27671915 0.370198 0.53849477 0.56472784 0.56484723 0.42741627 0.44564968 0.44719833 0.34495893 0.13488708 0.5457875 0.5625195 0.54205805 0.5608542 0.5647516 0.5430902 0.45159003 0.33920166 0.86974996 0.9190383 0.5998826 0.58824325 0.30651847 0.1643156 0.66083694 0.82080823 0.9413161 0.9780972 0.622201 0.10750228 0.0590287 0.5698232 0.6766528 0.80844223 0.89873487 0.9437374 0.93216014 0.49395317 0.5931591 0.16934446 0.18776464 0.5358187 0.6481292 0.71955717 0.7845155 0.89735234 0.4228589 0.1782233 0.21077459 0.20274685 0.40624705 0.5138978 0.61110073 0.67594826 0.098560266 -0.104194775 0.19674358 0.14411512 0.75718856 0.695385 0.52937174 -0.25112456 0.15358537 0.33479998 0.33302787 0.7662725 0.7978585 0.5416745 0.39022788 0.29067844 0.33560354 0.261145 -0.20848306 0.10905199 0.39344943 0.46552068 0.49979576 0.41823953 0.6934992 0.7637931 0.43272734 0.03643346 0.36498904 0.48764917 0.51434517 0.50974107 0.4509632 0.6848177 0.71925294 0.14259146 -0.08064821 -0.25057894 0.0024148151 0.47388187 0.510285 0.49598593 0.6665309 0.57562053 0.44132733 0.1999086 0.14808261 0.32450444 0.27547693 0.3551283 0.12650669 0.4188449 0.13122611 0.033366732 0.4626967 0.43845582 0.03403982 0.42981327 0.40404576 0.25383657 -0.039127257 0.19636896 0.06187135 -0.0006422028 0.3971302 0.48654285 0.26498675 0.30886534 0.047562465 0.10447247 0.2220177 0.42559084 0.4777394 0.5151824 0.36811814 0.38681874 0.2574609 0.19173642 0.12829079 0.045020428 0.047185846 0.47671545 0.505367 0.5065105 0.44599667 0.4520192 0.41431272 0.31252146 0.6939327 0.80796146 0.9243109 0.9513822 0.4308455 0.43301907 0.1773418 0.071177654 0.51693213 0.64198804 0.7290194 0.95048404 0.9030763 0.42563483 0.00448961 0.007943348 0.12055748 0.46463245 0.49324524 0.8901931 0.36154014 0.4042853 0.026934005 0.13003263 0.13771541 0.3787494 0.871224 0.85554695 0.275672 0.16397955 0.14049849 0.01820504 0.30952102 0.41730815 0.7875093 0.08895932 -0.024347343 0.0020585284 0.15442787 0.15896901 0.18869722 0.16609126 0.20193106 0.1489583 0.40579438 0.5559969 0.70013785 0.55416965 0.4412045 -0.17712833 -0.03755205 0.16881494 0.19410479 0.21026254 0.2254783 0.25521296 0.26388535 0.17371576 0.65287125 0.14564352 0.19052075 0.22609821 0.09971052 -0.31052303 -0.013086215 0.15638578 0.18414742 0.2118196 0.24139456 0.3090758 0.17043969 0.63202906 0.6225643 0.08011736 -0.0028629154 -0.09122409 0.131327 0.15338723 0.22993731 0.1983235 0.603901 -0.05067067 0.09126848 0.24897483 0.4490248 0.34687597 0.5701953 0.5247759 0.24147052 0.28951615 0.3670281 0.44379067 0.43538082 0.4080581 -0.03672955 -0.020078305 0.054782677 0.36737132 -0.07369326 0.10025711 0.45094597 0.60742354 -0.054642282 0.46806228 0.6230608 0.66748416 0.6501887 -0.126494 0.605656 0.6543902 0.6871338 0.65610206 0.5970906 0.30686122 0.28206453 0.6297776 0.6482987 0.6703067 0.65429443 -0.17897592 -0.2427187 0.12478653 -0.21957223 -0.22247905 0.27781376 0.061614968 0.032606248 0.24060659 0.094458535 0.11557077 0.10794483 0.0037730262 -0.003740931 -0.0048718415 0.0039244965 0.4298883 0.42630583 0.37496424 0.33700442 0.33389932 0.21577498 0.62915707 0.7894763 0.8584264 0.8713746 0.36227724 0.33056638 0.12603651 0.047264818 0.10962467 0.16816837 0.44209787 0.45752832 0.54269433 0.8508295 0.8541836 0.4467499 0.4356601 0.015315078 0.03985467 0.08819622 0.1700682 0.21630539 0.21710841 0.31164747 0.41156203 0.8346133 0.3807882 0.17194381 0.1567335 0.22416681 0.36530903 0.80071497 0.81930447 0.25384575 -0.057285257 -0.07093668 0.05883147 0.028634839 0.11701027 0.75653815 0.14899068 0.049821615 -0.10535325 -0.17250085 -0.18508191 0.11963735 0.14770554 0.15040784 0.06581159 0.50802886 0.47766626 0.25218323 -0.2560279 -0.22674938 0.10758522 0.15612774 0.48914194 0.16832635 -0.06798404 -0.17905617 0.22420344 0.53003645 0.50524163 0.30241 0.55507314 0.029748127 0.2101787 0.24335748 0.36592242 0.5397635 0.61330557 0.4965062 -0.008215047 -0.03113247 0.33137357 0.20622027 0.19731358 0.19192566 0.32259312 0.4112292 0.34584147 0.20344168 -0.025794743 0.010602165 0.024644136 0.0013658404 -0.030422779 0.025532134 0.41702807 0.034438208 -0.32213244 -0.029402347 0.2193068 0.15273349 -0.18383333 0.5546421 0.56028056 0.26656637 -0.07808594 0.5336552 0.570745 -0.014918722 -0.1281622 0.6037431 0.62138623 0.5892519 0.5504485 0.015160579 -0.065961465 0.56078255 0.57592285 0.10587172 -0.06582879 -0.04444702 0.05034612 -0.026060574 0.084264025 -0.021356955 -0.014485478 0.05929944 -0.020300463 0.063579015 0.019047325 -0.015733644 -0.04195051 -0.021578422 0.08977881 0.15432623 0.3681286 0.37995607 0.34588802 0.374382 0.37696442 0.34811264 0.31710863 0.35923597 0.3186853 0.23885423 0.21325095 0.49889183 0.60706383 0.7200824 0.7657684 0.53419185 0.5092609 0.38744718 0.25644156 0.19282694 0.11746894 0.08309376 0.19391379 0.25525948 0.25504342 0.22240554 0.3665259 0.45738494 0.68528265 0.76985466 0.79821944 0.47479054 0.49552897 0.24106416 0.19869243 0.16483444 0.16067259 0.22525649 0.7308831 0.78140473 0.14820185 0.099960774 0.17857996 0.70092034 0.76972795 -0.13664696 -0.09188614 -0.08843503 -0.0017423853 -0.04897693 -0.04822868 -0.024488807 -0.26944637 0.35138738 0.31552333 0.18060306 -0.025739238 -0.26082253 0.10412504 0.3979978 0.27560532 0.46666968 0.5934943 0.41274816 0.35904768 0.59808105 0.6488668 0.6797494 0.57791257 0.6502019 0.6967097 0.4433092 0.09030911 0.22105458 0.3257679 0.5018969 0.62246805 0.6910659 0.11833735 0.05233696 0.07927663 0.2814706 0.3405702 0.28870457 0.2855572 -0.022416562 0.2785313 -0.060364448 0.37531978 -0.13733956 0.475716 0.39601165 0.49020955 0.47585726 0.02361981 0.03537724 0.05147251 0.11372344 0.17755327 0.4051444 0.45805162 0.47837073 0.06326818 0.114643134 0.23886001 0.29061455 0.29696205 0.122842185 0.105663195 -0.026159383 0.10799555 0.06151089 0.2692982 0.3077076 0.09503104 0.030630853 -0.08224565 -0.1691604 -0.079987824 0.21971762 0.2899127 0.20696263 0.030314293 0.37569946 0.44106233 0.3864679 0.34026256 0.38524914 0.45510635 0.46859753 0.46108067 0.50388056 0.41660708 0.26010323 0.32566947 0.34476036 0.3008774 0.20511107 0.22975187 0.23626204 0.2064922 0.4177888 0.45840356 0.58081686 0.5571443 0.5520278 0.20290214 0.2138162 0.090902604 0.12332067 0.22695531 0.22832112 0.23444219 0.22211818 0.3643812 0.38819668 0.45125023 0.50141 0.6402097 0.5065846 0.5362168 0.13590291 -0.04517206 -0.02816102 0.18200096 0.4059162 0.4774053 -0.14958918 -0.27050865 -0.036752716 0.41933152 0.60615903 0.2176029 -0.123039484 -0.12540129 0.11354014 0.08240233 -0.03966832 0.044796206 0.08566955 0.24088228 0.20633411 0.13411018 0.25528982 0.6017817 0.24950296 0.66130733 0.72504073 0.29832116 0.7419665 0.62120277 0.714005 0.23481919 -0.030543692 0.3330648 0.48985612 0.33712336 0.06868574 -0.03829574 -0.113316506 0.0048321337 0.44202042 0.35292286 -0.0031054057 0.38963413 0.23494217 -0.022045448 -0.15017535 0.23790549 -0.30905938 0.42373064 0.38941774 0.60538584 -0.15900746 -0.032965846 0.3832055 0.63174206 0.55148786 0.34876132 -0.13379678 -0.013040002 0.17036124 0.3058937 0.36664766 0.38800794 0.022145826 0.078153566 0.2816175 0.25439587 0.07388419 0.09896043 0.27079272 0.31193942 0.31134242 0.077165745 0.008985843 -0.031841688 0.013640469 -0.1129186 0.18058537 0.047900137 0.012845025 -0.12890935 0.055958685 0.3993741 0.3506453 0.37314525 0.4382464 0.47898865 0.45948476 0.4540792 0.4699459 0.24295364 0.3241878 0.31116918 0.41033858 0.20572042 0.2696137 0.27786234 0.255084 0.26251084 0.24668099 0.23391314 0.108272985 0.18996279 0.2588979 0.15803677 0.10414358 0.131004 0.56216556 0.49866575 0.38736272 0.21262394 0.19341901 0.25258324 0.26827595 0.17352724 0.0770082 0.123135634 0.12276293 0.1462447 0.029909886 0.08788898 0.10013863 -0.11182903 0.023912162 -0.023740426 0.28526026 0.31863213 0.3771104 0.5253054 0.54595 -0.13589261 -0.10425396 -0.08889671 0.27709663 0.27455607 0.44940948 -0.20524374 0.13632831 0.13737543 0.1643885 0.12952793 0.17354964 0.15795663 0.6056651 0.16468541 0.7472033 0.14292203 0.76204205 0.69697654 0.4136215 0.12198368 0.27300102 0.48916793 0.46846166 0.06719132 0.25175643 0.51037717 0.47751674 0.27825963 0.49632275 0.46819288 0.40984952 0.40543795 0.42177224 0.29685545 0.60265005 0.6074157 0.4975998 0.09391852 0.30998838 0.23095238 0.64480466 0.6570401 0.28353855 0.053453483 -0.14407712 0.2552916 0.22736436 0.6543661 0.67052495 0.5545846 0.41650915 0.034592014 -0.05704295 -0.010423053 0.26153445 0.21755543 0.20849298 0.0033976585 0.019732436 0.07834643 0.2351565 0.2893834 0.29603288 -0.0024499334 -0.048957326 0.006209735 0.18010439 0.1456364 0.10220866 0.10737266 0.09902797 0.10271582 0.030669216 0.033694416 0.3401287 0.1368104 0.112910695 0.10224469 0.09860815 0.3151201 0.40793315 0.46846217 0.43886054 0.44207084 0.46176535 0.36818543 0.36727145 0.31270343 0.28271893 0.35519668 0.32317457 0.26819283 0.17656574 0.10094261 0.13402274 0.28784305 0.11708146 0.21865319 0.19697821 0.06546677 0.12842551 0.13693373 0.12604888 0.06234391 0.06463535 0.53094995 0.43750763 0.29789627 0.25964457 0.26313835 0.2927435 0.30918562 0.28828394 0.2953322 0.22150941 0.17474431 0.122866645 0.013791449 0.001183413 -0.10624241 0.03273797 0.080405205 0.496719 0.42153043 0.22456384 0.2298415 -0.05090499 0.3026877 0.14258672 -0.06372923 0.14326563 0.17431906 0.18258902 -0.021087572 0.08273146 0.11131935 0.027741201 0.09099257 0.16991408 0.09088981 0.22464971 0.34351003 0.6426299 0.7186301 0.65316045 0.4148384 0.2785241 0.40874332 0.52464664 0.5329608 0.38803363 0.4510035 0.5056476 0.48265398 0.4541974 0.50044155 0.52000403 0.43095386 0.0902189 0.3733659 0.44029415 0.49674222 0.45557088 0.02253607 0.5321151 0.58368635 0.20965269 0.18270187 0.6206149 0.6567713 0.12506208 -0.09189651 0.20411989 0.21257177 0.21119413 0.6226505 0.545902 0.29387745 0.05101025 -0.016943038 0.006850564 0.028041238 0.13151573 0.2469714 0.06621357 0.025023215 -0.03365857 -0.06931018 0.02570616 0.010551924 -0.105800584 0.1510472 0.19882886 0.11667506 0.15486792 0.13342212 0.10011324 0.087503195 0.030487556 -0.008393526 0.22419816 0.4104601 0.34772748 0.09970243 0.06964796 0.1946844 0.35170263 0.36139816 0.39246202 0.3728881 0.32250458 0.27021945 0.33567056 0.3965059 0.3489122 0.25978023 0.17881227 0.25754893 0.16463542 0.100087464 0.10490329 0.118133485 0.20161328 0.13911957 0.10043593 0.07129538 0.12948136 0.19943872 0.2012696 0.2581148 0.27554455 0.31617016 0.31393185 0.0051451325 -0.10727116 -0.11478945 -0.11278276 0.1483432 0.07279299 0.28032815 0.2750135 0.25649694 0.27074283 0.2690445 0.2750461 0.18600355 0.0046325102 0.0644179 0.22954929 0.17765734 0.2032629 0.089695424 0.1362175 0.040212512 0.14167662 0.07819845 0.06336678 -0.05242328 -0.62259686 0.0029947832 0.29647475 0.16568121 0.11151503 0.13301776 0.114245415 0.12694477 0.17584571 -0.073251836 0.19533226 0.17037448 0.14351322 0.11311591 0.34794924 0.47105432 0.09172638 0.035423145 0.3147118 0.52354693 0.53848195 0.4965315 0.47956234 0.4426418 0.5271463 0.3697943 0.17019899 0.082897045 0.3631152 0.44221428 0.47865283 0.5156944 0.19852611 -0.04030116 -0.011500301 0.14707428 0.33551723 0.3711446 0.45442143 0.42555863 0.4993434 0.12688252 0.12639159 0.5166936 0.037996635 0.1439338 0.5571755 0.5414448 0.45775917 0.31495857 -0.19647193 -0.086181 0.071118176 -0.08488466 0.035421122 0.013687436 -0.053338274 0.11398281 0.121227495 -0.018574204 0.031389132 0.19848426 0.14764811 0.13104287 0.10245362 0.09840769 0.07263921 0.018577114 0.22085263 0.29646257 0.3499117 0.33700705 0.28606993 0.19133067 0.21455817 0.28639013 0.13941768 0.026431689 0.104934976 0.16425052 0.21342844 0.16430655 0.22682396 0.0784751 0.13002238 0.21939279 0.2588553 -0.02305337 0.18948737 0.19882214 0.15788287 0.15595613 0.15261234 0.23470205 0.23306759 0.15261582 0.12820159 0.10838622 0.4846543 0.48560542 0.5064895 0.07757403 0.14022782 0.17596832 0.1488361 -0.026435217 0.061928585 0.16088387 0.42463404 0.41158763 -0.0651833 -0.09185662 -0.12388368 -0.35849637 -0.123139895 0.26028818 0.29444814 0.35593683 0.16351828 -0.0377434 0.0016146153 -0.00053827465 -0.110477015 -0.20676635 0.2421265 0.2273336 0.22137967 -0.20562816 -0.1645835 -0.15298313 0.1992862 0.21455005 0.10922782 0.11159735 0.18869981 -0.06595478 0.12670413 -0.1606475 -0.2607275 0.063376054 0.09028278 -0.2824577 0.030965671 0.3718275 0.24793358 0.403714 0.4689567 0.41528934 0.19217294 0.4698105 -0.04986988 0.4426939 0.47639865 0.046499513 -0.11673905 0.075199135 0.20154145 0.29649717 0.36905587 0.4470505 0.34713084 0.2884899 -0.17188795 0.047036067 0.44375536 -0.22977784 -0.17014383 0.47887146 0.45989668 0.37929708 0.25175464 -0.016622 -0.122036494 -0.014134632 -0.011686251 -0.28742844 0.017224252 -0.03949982 0.05888611 -0.13249013 -0.17547344 0.1277736 0.15450874 0.15365373 0.14193313 0.011458188 0.26167846 0.27912748 0.2774015 0.24498264 0.1709528 0.08820504 0.08153228 0.033574138 0.002509946 0.01392702 0.16409881 0.18404724 0.2975099 0.29535735 0.28044167 0.20208494 0.20242417 0.19352002 0.1090668 0.19957536 0.27058962 0.13015912 0.0014304146 0.005684793 0.11115679 0.15980399 0.18604931 0.11740285 0.17269993 0.012978423 0.106814116 0.14376912 0.20903207 0.008304071 0.23858258 0.14065963 0.26121473 0.17089128 -0.13488218 0.13174778 0.14498347 0.25527534 0.24638866 0.19211036 0.036413923 -0.1071134 0.16831188 0.19635814 0.15537235 0.17181927 0.22443324 0.39861625 0.4893591 0.5396472 0.5335836 0.0437145 -0.0080759525 0.027805708 0.05427236 0.26580876 0.3477701 0.51937866 -0.16332531 -0.11672932 -0.10890004 -0.13144463 -0.30967534 0.27813506 0.214432 0.19728318 0.2505731 -0.28869668 -0.24983822 0.26214248 0.2503702 0.2002518 0.05410845 -0.20423591 -0.23490107 -0.3431082 0.19453764 0.21427956 -0.19608743 0.09177529 0.19625755 -0.20699352 0.13103493 -0.19717535 0.10208451 0.021212406 0.048692673 0.43150216 0.13641813 0.20497286 0.075266466 0.39252222 -0.12639277 0.32646716 0.333421 0.078314774 -0.06845579 0.06058406 0.16805267 0.2903152 0.3118318 0.32099432 0.17551525 -0.1617232 -0.08365017 0.32466382 0.37141943 -0.3236395 -0.058740877 0.39415708 0.34499598 0.26517648 0.115711644 -0.15831514 -0.06028995 -0.08965654 -0.044413812 -0.25821513 -0.1239558 0.095115006 -0.010069188 -0.071577355 -0.038835842 0.014556529 0.12694706 0.14947645 0.04666491 0.13720906 0.1336354 0.17114827 0.2017506 0.1669428 0.22087133 0.25864476 0.016360626 0.033168126 0.028734349 0.096670456 0.23678255 0.31390733 0.2668879 0.2824151 0.29310185 0.23659144 0.06603536 0.22702971 0.30688682 0.37924737 0.3701159 0.28913423 0.2768839 0.1481646 0.17761564 0.16312364 0.17355926 0.63518953 0.65493524 0.6498817 0.0911095 0.112488404 0.17027542 0.14103511 0.15566823 0.16688478 0.5447109 0.5767925 0.6182339 0.6040822 0.56851405 0.06636501 0.14272563 0.15063605 0.17076191 0.152942 0.50955427 0.5543048 0.52333313 0.4897166 0.45265275 0.017320892 0.18872789 0.18386565 0.40410116 0.40381217 0.4527787 0.44732445 -0.06616594 0.1024964 0.089316234 0.6610007 0.63468593 0.5656716 0.25166458 0.27680326 0.28556284 0.32348174 0.28398967 0.27261734 0.22586502 0.12343839 -0.21474437 0.09154844 0.14307223 0.6569638 0.64026093 0.5858801 0.26707423 0.4784251 0.27071095 0.27970368 0.01575135 0.17594486 0.44617593 0.5175615 0.5332371 0.44505212 0.17470188 0.24266669 0.29428303 0.5500182 0.37972194 0.01557521