# vtk DataFile Version 2.0
Really cool data
ASCII
DATASET POLYDATA
POINTS 5474 float
-19.70824 -10.091952 -20.164415
-19.827772 -10.112023 -19.481909
-19.822939 -9.96641 -18.798628
-19.88163 -9.329351 -20.414768
-20.12936 -9.540766 -19.436903
-20.003475 -9.432394 -18.641258
-19.74091 -9.413996 -18.237574
-19.784834 -8.378668 -21.063063
-20.180054 -8.678728 -20.095
-20.229292 -8.772429 -19.305523
-20.070547 -8.6143265 -18.6546
-19.813908 -8.643349 -18.192106
-19.779612 -7.581008 -21.119558
-19.991467 -7.2974334 -20.146858
-19.883041 -7.4048643 -19.252338
-19.886274 -7.8278484 -18.804667
-19.689075 -8.135315 -18.238636
-19.65937 -7.1479697 -21.22333
-19.728706 -6.7311196 -20.24876
-19.773779 -6.723749 -19.624496
-18.928688 -10.633483 -20.230106
-19.167847 -10.694364 -19.567045
-19.132559 -10.626556 -18.989313
-19.161224 -10.089596 -20.803518
-19.406843 -10.317955 -20.306065
-19.44653 -10.509827 -19.678856
-19.327961 -10.257638 -18.635387
-19.173973 -9.941485 -18.146492
-18.882124 -8.956296 -21.662106
-19.076431 -9.378689 -21.269995
-19.479712 -9.523001 -18.08623
-19.237906 -8.239422 -21.66581
-19.512156 -8.453922 -21.438107
-19.187738 -8.621027 -17.857758
-19.200949 -7.656188 -21.757004
-19.400724 -7.116961 -18.472973
-19.279167 -7.5146785 -18.170654
-18.83292 -6.6624694 -21.803928
-19.346762 -6.876066 -21.340586
-19.3862 -6.3864145 -20.678291
-19.326658 -6.6490793 -18.528063
-18.98672 -6.9785476 -18.069662
-18.949171 -5.6291075 -21.282614
-19.310333 -5.7587657 -20.490692
-19.37218 -5.84735 -19.506794
-19.265738 -5.8879128 -18.951435
-18.818617 -6.006068 -18.21582
-18.738087 -4.6170697 -21.09693
-18.92605 -4.8944445 -20.33667
-18.292452 -10.640987 -20.216347
-18.709148 -10.810291 -19.543959
-18.62971 -10.718024 -18.98536
-18.426556 -9.919519 -21.145016
-18.777376 -10.491493 -20.501163
-18.75974 -10.456584 -18.504128
-18.438166 -10.15979 -18.117079
-18.736444 -9.427784 -21.46724
-18.746916 -9.527489 -17.804733
-18.340958 -8.429088 -21.964685
-18.466728 -8.735503 -17.685423
-18.272383 -7.2816925 -22.158604
-18.64468 -7.634442 -17.793745
-18.304476 -6.576498 -22.057152
-17.979132 -6.5835953 -17.572445
-17.721205 -5.1041255 -22.70666
-18.188047 -5.3794265 -22.388184
-18.060207 -4.5959983 -22.31264
-18.523254 -4.245176 -21.214016
-18.311798 -4.341127 -19.669504
-17.656193 -4.151673 -18.56728
-17.658604 -4.103891 -16.540987
-17.998789 -4.051649 -22.152725
-18.186487 -3.6703544 -21.530634
-18.061321 -3.2405136 -17.30249
-17.97503 -3.196576 -16.651178
-17.732456 -2.6273944 -21.853237
-17.929274 -2.7367272 -21.236395
-18.007717 -2.4241645 -20.939346
-18.241648 -2.441279 -18.237015
-18.400414 -2.2074218 -17.263119
-18.228668 -2.3314526 -16.80221
-17.819246 -2.827911 -16.224766
-17.641098 -1.6216763 -21.35552
-17.713615 -1.6402003 -20.679422
-17.713896 -1.2558137 -19.825634
-18.126293 -1.5212656 -18.265654
-18.290123 -1.615721 -17.528725
-18.032906 -1.5732226 -16.675182
-17.83208 -1.9161183 -16.198582
-17.658182 -0.9447004 -19.39851
-17.9543 -1.0839101 -18.434504
-17.862333 -0.95438075 -17.607697
-17.743101 -1.0740062 -16.664513
-18.093332 -10.601708 -20.154072
-17.952686 -10.667892 -19.261332
-17.251345 -10.385357 -20.28145
-17.378227 -10.422235 -19.292534
-17.43176 -10.1448965 -18.32823
-17.746288 -9.91323 -18.043112
-17.448013 -9.23999 -21.936537
-17.567085 -9.415856 -17.901403
-17.604692 -6.288076 -22.74165
-17.529814 -6.7522683 -22.513605
-17.553963 -5.4988923 -22.91762
-17.038486 -4.4145846 -22.931124
-17.36661 -4.3298903 -16.857164
-17.200466 -3.9788804 -15.821582
-16.951008 -3.6171396 -22.881607
-17.380665 -3.3248346 -22.39575
-17.121162 -3.5293593 -15.716789
-16.964697 -2.4483635 -22.63726
-17.343428 -2.5560238 -22.314238
-17.052443 -2.444079 -15.604365
-17.152462 -1.6572706 -22.134947
-17.439888 -1.4906764 -21.68643
-17.226547 -1.5879103 -15.832603
-17.173693 -0.7487404 -21.361353
-17.54664 -1.023241 -19.956448
-17.494667 -0.73569953 -19.374683
-17.507732 -0.50785136 -18.486328
-17.313702 -0.34046027 -17.276897
-17.44659 -0.70814204 -16.832819
-16.795263 -0.7776296 -15.961588
-16.569332 0.60623455 -21.437222
-17.102926 -0.12841168 -19.249842
-17.03296 0.11835852 -18.202667
-16.627085 0.95615685 -17.3463
-15.5765915 -13.082466 -23.29734
-15.558207 -13.216984 -22.930702
-15.6637125 -12.6502285 -23.237928
-15.62443 -11.920717 -23.931877
-15.677696 -11.365474 -23.325977
-15.724926 -11.450152 -22.78121
-15.8249 -10.831006 -21.269022
-16.023504 -10.076298 -23.31575
-16.202803 -10.092619 -19.519241
-15.607389 -9.81544 -11.9530115
-15.706652 -9.663648 -24.23079
-16.025671 -9.374872 -23.689379
-16.911627 -9.357933 -18.237188
-15.746101 -9.20517 -12.315516
-15.701579 -9.331849 -11.571298
-15.708034 -8.927889 -11.204122
-15.773769 -9.007252 -23.928434
-16.576286 -8.357293 -18.144793
-15.818899 -8.347924 -12.085909
-15.86072 -8.4848585 -11.62508
-15.603716 -8.335683 -10.866432
-16.36688 -7.1173587 -17.990768
-15.730321 -8.11198 -12.3177595
-15.72023 -7.5035434 -11.495747
-15.639494 -7.433354 -11.048282
-16.823503 -6.403378 -17.786753
-15.611347 -7.1263375 -11.4029875
-15.526049 -5.5304604 -28.741426
-16.413895 -5.7201543 -17.75198
-16.344845 -4.9246907 -16.999838
-16.499746 -4.669296 -16.202513
-16.686789 -4.658893 -23.26517
-16.578638 -4.36719 -15.775532
-16.58142 -3.6171913 -15.439854
-16.441929 -2.8213582 -15.385346
-15.690039 -1.8468295 -7.8977847
-16.700237 -1.5373138 -22.53132
-16.422453 -1.1486025 -15.513261
-15.936188 -1.1750522 -15.442686
-15.73929 -1.5130167 -8.386894
-15.7924385 -1.487678 -7.7079315
-15.631219 -1.2947733 -6.851556
-15.850829 -0.21178348 -22.77862
-15.633469 -0.83740604 -8.912575
-15.703937 -0.6536255 -8.421256
-15.796655 -0.5668135 -7.6334214
-15.6099205 -0.5510812 -6.4703345
-15.569325 -0.92631316 -5.9918065
-15.881163 0.37515584 -22.71552
-16.221401 0.3963923 -22.469069
-16.211018 0.6691741 -20.221376
-16.49052 0.33292234 -16.513462
-15.999807 0.51043 -16.040194
-15.6120825 -0.07899594 -8.27953
-15.652753 -0.08180607 -7.813478
-15.55059 0.03744398 -6.5657644
-15.747001 1.4364791 -22.763132
-15.8911085 1.5024034 -22.487413
-16.294897 1.2666436 -21.587225
-15.892924 1.6374753 -20.644753
-16.417103 1.4303575 -18.032383
-16.298393 1.7180332 -17.810986
-16.165504 1.791099 -16.833538
-15.739053 2.4817793 -22.199232
-15.864428 2.4158027 -21.728384
-15.773575 2.3068874 -19.683193
-15.883477 2.5040355 -18.79272
-16.262892 2.2127514 -17.204006
-16.264994 2.45083 -16.37177
-16.037903 2.44855 -15.679224
-15.799123 2.254593 -15.193228
-15.665892 2.7853255 -22.009485
-15.6744585 2.881368 -21.538654
-15.561091 3.2665482 -19.334953
-15.73122 3.3101897 -18.523582
-15.899049 3.3166738 -17.478008
-16.000502 3.316842 -16.491972
-15.915753 3.2203825 -15.850943
-15.696198 3.052111 -15.122329
-15.599485 3.9322073 -18.221544
-15.608947 3.7859972 -17.319824
-15.566266 4.846104 -12.338635
-15.551055 4.7011633 -11.742404
-15.523357 5.441215 -12.066278
-15.546494 5.152518 -11.767919
-14.852624 -15.175753 -22.087023
-14.907136 -15.178166 -21.560919
-14.838753 -15.149725 -20.91771
-14.9836 -14.243786 -23.121937
-15.232333 -14.568433 -22.191189
-15.281194 -14.478667 -21.603563
-15.151644 -14.441907 -21.026155
-14.752424 -14.502124 -20.25461
-15.138852 -13.185723 -24.132399
-15.317825 -13.720086 -22.99429
-15.446546 -13.571679 -22.526161
-15.25402 -13.522441 -21.236893
-15.085566 -13.540507 -20.71183
-14.772966 -13.944004 -20.17108
-14.864147 -12.562078 -24.780169
-15.3272915 -12.606735 -24.278603
-15.119171 -12.84565 -21.482903
-14.707298 -12.25057 -17.303425
-14.649511 -12.327517 -16.357077
-14.899385 -11.533092 -24.876253
-15.30901 -11.723758 -24.66722
-14.933106 -11.53234 -17.10264
-14.757897 -11.188254 -16.644518
-14.705243 -11.88894 -15.917636
-14.979921 -10.1432 -25.515104
-15.337061 -10.200687 -18.434858
-14.635198 -10.121522 -13.336256
-15.421084 -9.883374 -12.259632
-15.434721 -9.788801 -11.387601
-14.629088 -9.177564 -27.298883
-15.114812 -9.392084 -25.744265
-14.814402 -9.175122 -13.665401
-14.915982 -9.349797 -13.369085
-15.495631 -9.58844 -12.47865
-15.517046 -9.659041 -11.376556
-15.436495 -9.379163 -11.019602
-14.758869 -9.136479 -10.115618
-14.895779 -8.321875 -27.855051
-14.914109 -8.418527 -27.52786
-15.411276 -8.835151 -25.4746
-15.37805 -8.957911 -24.818018
-15.73525 -8.2993555 -18.221766
-15.201137 -8.460985 -13.052158
-15.398351 -8.208945 -10.530025
-14.987145 -7.3165364 -28.304634
-15.229206 -6.98966 -27.273844
-15.069411 -7.589692 -26.42935
-15.250977 -7.339908 -25.045269
-15.914097 -7.2099776 -17.991747
-15.411513 -7.4830976 -10.486371
-15.163578 -7.4849086 -10.184871
-15.214711 -6.1942167 -29.26586
-15.434821 -6.217106 -28.365986
-15.033856 -7.028696 -25.44336
-15.677611 -6.1645923 -18.016073
-14.897541 -6.731638 -12.35243
-15.265261 -6.5598974 -11.413709
-15.209247 -6.715599 -10.627241
-15.059314 -6.894805 -10.329719
-14.778551 -4.861465 -30.843988
-14.913126 -5.144262 -30.203846
-15.358528 -5.578935 -29.325157
-15.490872 -5.5415993 -28.530796
-15.261604 -5.9627657 -26.41604
-15.318119 -5.129436 -23.403288
-15.781293 -4.7645774 -16.998636
-15.010942 -6.308748 -10.870717
-15.06812 -4.2337537 -30.788921
-15.229035 -4.336148 -30.441557
-15.38673 -4.3368983 -29.458853
-15.277974 -4.3645983 -28.96934
-15.230121 -4.8482895 -27.791084
-14.6584 -4.250456 -27.235428
-15.670049 -4.534582 -16.36009
-15.768664 -3.8765292 -15.667487
-15.070174 -3.7447863 -30.94742
-15.306077 -3.5515711 -30.490368
-15.316216 -3.3981621 -29.347664
-15.254988 -3.5858738 -28.741396
-15.773257 -3.7556806 -15.552019
-16.041054 -3.7040565 -15.375667
-14.978304 -2.5847986 -8.298567
-14.933109 -2.6227324 -30.998701
-15.206575 -2.3461537 -30.358408
-15.336582 -2.8426461 -29.511892
-15.072875 -2.6944332 -28.853731
-15.340799 -2.8309855 -23.112366
-15.081558 -2.0061822 -15.451084
-15.380727 -1.8500323 -8.91793
-15.453885 -2.0320015 -8.533154
-15.447866 -2.1821926 -7.671384
-15.330319 -1.9281657 -6.8238873
-15.007224 -1.713072 -5.7737074
-14.738471 -1.7826208 -31.058489
-14.895647 -1.5419035 -30.446293
-15.020931 -1.6807246 -29.45059
[...]
POINT_DATA 5474
SCALARS features_00 float 1
LOOKUP_TABLE default
0.7859133 0.8332373 0.8389727 0.7625563 0.8539053 0.8214117 0.8026632 0.5906987 0.7753323 0.7796641 0.70271564 0.6906407 0.5185821 0.5576207 0.5410306 0.5701836 0.6047183 0.47437692 0.48135313 0.4913222 0.74835706 0.7902026 0.81147933 0.70343184 0.75929105 0.800531 0.8288692 0.8161916 0.52494466 0.6103067 0.8028697 0.49450672 0.54476285 0.66861004 0.45275322 0.49444044 0.5170081 0.37457988 0.43556714 0.4302876 0.4659459 0.4647039 0.35155445 0.3951765 0.42269498 0.4244702 0.4107841 0.3120334 0.32749233 0.71627915 0.7630862 0.7818264 0.6169032 0.7240348 0.80625105 0.7924416 0.56873924 0.7807684 0.41445315 0.6940148 0.35034 0.49031687 0.33505738 0.4617401 0.28805327 0.30080312 0.28934163 0.2885281 0.2470419 0.3159315 0.6617042 0.27148774 0.2569502 0.550503 0.62299407 0.24131325 0.23104212 0.22139016 0.40918136 0.5381112 0.57617855 0.63645065 0.2144726 0.19735762 0.18576124 0.34459376 0.45981658 0.52363825 0.5657681 0.19263685 0.28519854 0.3636341 0.46483314 0.70552164 0.72300196 0.6004406 0.66573143 0.69544053 0.7368278 0.3690067 0.66579604 0.272023 0.26554525 0.2761099 0.25832754 0.63222367 0.6599428 0.2526251 0.25079873 0.6536335 0.24207395 0.24448085 0.57595515 0.24058673 0.22554538 0.501932 0.20103386 0.16373071 0.17860672 0.22140963 0.29819167 0.39606845 0.3821587 0.32743937 0.13493916 0.16156213 0.16420093 0.42186165 0.42416394 0.39189553 0.37165448 0.328933 0.29217345 -0.11470158 0.15012935 0.3590203 0.4819761 0.13959327 0.08970526 0.50561345 0.51830816 0.5139235 0.52240086 0.0926109 0.21307254 0.5655438 0.5493814 0.5216973 0.054772854 0.5794124 0.5552932 0.5369667 0.033580765 0.5467696 0.39268357 -0.08554363 0.3622458 0.5463803 0.24518944 0.5862194 0.59462 0.53408885 0.5731333 0.23110858 0.36746216 0.3017124 0.5364592 0.57364655 0.6279168 0.29452166 0.46044084 0.4976767 0.55190396 0.6490344 0.7128445 0.37735295 0.38194543 0.11278411 0.23493767 0.21175401 0.4709622 0.5128307 0.62693805 0.46543434 0.47321 0.4112357 0.24816594 0.12735029 0.17805074 0.25252083 0.44949296 0.41050625 0.21032533 0.2413209 0.2615118 0.32378483 0.34410968 0.32081318 0.42683518 0.3822386 0.31492597 0.31789577 0.32022232 0.3475231 0.36676103 0.35673648 0.35255107 0.338425 0.59226024 0.600315 0.66956985 0.6482415 0.5794568 0.60252523 0.61465275 0.4843672 0.5314947 0.53801453 0.54988587 0.53365755 0.43338633 0.4608962 0.4546873 0.4712339 0.4514319 0.4597897 0.36648494 0.41084123 0.3750316 0.33746547 0.37456527 0.2940159 0.33922935 0.3228965 0.3324688 0.38369402 0.14869596 -0.08548181 0.37093857 0.473588 0.45557517 0.1272083 0.12392359 0.3590104 0.40791786 0.49450764 0.47295725 0.4724366 0.38771856 0.21790706 0.17656611 0.1371685 0.13742474 0.028356649 0.47814876 0.49690711 0.32617745 0.25318494 0.18216519 0.13767058 0.018973922 0.5101131 0.47453386 0.412161 0.36061245 0.16095613 -0.08739158 0.5367527 0.53097045 0.5013788 0.46799433 0.52073324 0.4821822 0.42299354 0.3764246 0.254534 0.21598616 0.26007542 0.49779645 0.5744374 0.5472863 0.48318392 0.43911433 0.35150772 0.28412217 0.38904202 0.49539322 0.62029076 0.62214684 0.5361187 0.44988963 0.5044549 0.5450988 0.5869076 0.7123204 0.7518254 0.62112844 0.55187446 0.13973218 0.27139276 0.502007 0.5465864 0.5855189 0.62979615 0.7623656 0.7797038 0.8126398 0.74151355 0.68787456 0.2846628 0.3955763 0.69235134 0.7820672 0.8498248 0.83143103 0.8068527 0.22619385 0.13347422 0.27505106 0.37462348 0.44428766 0.6780211 0.7817879 0.8790431 0.3653912 -0.0025739186 0.2595842 0.36589938 0.52956456 0.66921663 0.791316 0.87743956 0.45247567 0.15277593 0.2968623 0.42933705 0.49366766 0.72135925 0.46200424 0.46368647 0.29113558 0.45488274 0.430351 0.3834244 0.30832514 0.3377873 0.31115034 0.47643906 0.44345194 0.53996783 0.31100115 0.3780921 0.37144503 0.35763022 0.3370685 0.35913002 0.501963 0.5513149 0.59329003 0.63605726 0.3797043 0.35782945 0.6202431 0.6511271 0.6888199 0.72222614 0.6792721 0.7652918 0.81990445 0.8394449 0.6807946 0.76741964 0.8266958 0.61861396 0.6867302 0.7129707 0.7074939 0.4811411 0.5765744 0.6136626 0.64836776 0.62662524 0.47160465 0.53095144 0.5924479 0.61591554 0.6410935 0.373392 0.12582354 0.34078655 0.3153467 0.33583754 0.26023272 0.49639022 0.5755292 0.60641557 0.009315448 0.36962274 0.19279428 -0.004477389 0.13050327 0.3675719 0.51176375 0.5118449 0.09734912 0.14551005 0.35028186 0.28258112 0.22159038 0.0898267 0.0881155 0.28166765 0.21728799 0.2767892 0.24320067 0.27591753 0.15917651 0.12061643 -0.0027379915 0.23407981 0.33407986 0.33598146 0.43231204 0.17199634 0.1707525 -0.2757995 0.23405781 0.42529038 0.25727394 0.31527254 0.24038352 0.3689386 0.3618707 0.3262882 -0.08782207 0.24758518 0.5105557 0.47358453 0.57279503 0.07276164 -0.06983167 0.21117128 0.6439636 0.6283892 0.105479635 0.07708468 0.56822836 0.6903109 0.6987118 0.3714132 0.0609987 0.36146605 0.025582243 0.14575887 0.6410894 0.8147092 0.75197744 0.7861693 0.6305933 0.012994438 -0.068535455 0.019177936 0.9128991 0.8288398 0.8484648 0.81457627 0.69177526 0.20244372 -0.11159941 -0.019613124 0.16823748 0.9756017 0.3652354 0.18794729 0.957883 0.06149849 0.17972793 0.584041 0.73568714 0.83805925 0.45270413 9.113178e-05 0.2804159 0.43412864 0.436551 0.5282901 0.43856978 0.40055555 0.31220573 0.28236878 0.35600665 0.36806232 0.32190683 0.29792207 0.04965657 0.7647896 0.15424848 0.34252235 0.5508878 0.8086227 0.49309164 0.6290462 0.73302865 0.7990046 0.80459607 0.7365099 0.76271904 0.57325304 0.68825483 0.7785208 0.73493576 0.6998854 0.6978844 0.67150545 0.39866287 0.48685426 0.6606774 0.49978033 0.64234304 0.67486477 0.6584994 0.62245715 0.6125987 0.30554143 0.38599408 0.35566592 0.19735992 0.5270661 0.5748495 0.6437545 0.68023014 0.66275775 0.5944587 0.54395676 0.32272118 0.04480108 0.17185858 0.29392877 0.2651428 0.058990993 0.45232934 0.6550099 0.62367237 0.50540704 0.17628655 0.109767035 0.50159824 -0.008461432 0.29526836 0.10213428 0.4308098 0.13315767 0.4950378 0.50976175 0.10464094 0.4819439 0.4986471 0.22819868 0.088820845 0.4453166 0.46746072 0.34349918 -0.113679916 -0.16046804 -0.018704198 0.062417656 -0.21861301 0.22208026 -0.003987357 0.017812774 0.57896227 -0.5099951 -0.22394785 -0.20950286 -0.17399171 0.0003155321 -0.016314924 0.6197555 -0.3130505 -0.24993835 -0.24011351 0.20728324 0.42112902 0.6835394 0.29916742 0.10486151 -0.2427242 -0.27025163 -0.028687514 0.85238636 0.8926501 0.74355054 0.7885193 0.511708 -0.11638238 -0.15512913 -0.16190675 -0.09657378 0.9357768 0.82953537 0.85032403 0.8220235 0.7065481 0.12246221 -0.24694619 0.9452869 0.21488199 0.16679123 -0.30068985 0.028182201 0.9241656 -0.017833278 0.7157942 0.8222942 0.41191506 0.434302 0.47805274 0.62229973 0.30513224 0.2870349 0.32678598 0.38301656 0.3115462 0.17185088 0.5851972 0.2877278 0.27499485 0.5506801 0.08183904 0.068002634 0.14804924 0.673165 0.3370834 0.70105445 0.73664045 0.63035643 0.66390896 0.7362268 0.8358072 0.79778814 0.8488405 0.82569194 0.7507362 0.43285912 0.6683433 0.7943002 0.76048744 0.7179489 0.70215046 0.7620145 0.65572727 0.30389535 0.388 0.58182204 0.6530701 0.6842145 0.6839516 0.6063344 0.52829474 0.5373283 0.2602652 0.013865337 0.16334328 0.4864704 0.5954901 0.6836635 0.6372684 0.5008276 0.44637245 0.59580505 0.4529224 0.3230161 -0.15033266 0.45435244 0.397826 0.25595704 0.35344496 0.25613117 0.14801691 0.43624604 0.48421958 0.2348772 0.49377704 0.46235684 0.088143334 0.46447086 0.44598204 0.047892466 0.44616917 0.3335535 0.3805693 0.48022774 0.027831972 0.0024503171 0.1376283 0.5572762 0.54462004 0.6715601 0.7413169 -0.07949239 0.7314241 0.8542179 0.80394286 0.7866113 0.59702986 0.4974439 0.07530305 -0.09774025 0.68341553 0.8288958 -0.15084077 -0.31360346 0.66944647 0.788358 0.10284674 0.63877225 0.77048385 0.3117294 0.48390752 0.14128128 0.3257096 0.38795516 0.0032610148 0.16190134 0.066216245 0.2282463 0.31425896 0.39359087 0.014771337 0.0556779 0.5563736 0.08443411 0.22444306 0.36855224 0.522423 0.5830794 0.65376306 0.8939864 0.86714655 0.81013465 0.8316001 0.8716965 0.7332592 0.7113217 0.59145504 0.68159884 0.7171914 0.5440446 0.2856145 0.32737288 0.59279966 0.62491596 0.6254428 0.5756825 0.59427464 0.1962583 0.013667207 0.015660428 0.45812988 0.6081656 0.5923657 0.49705774 0.5324237 0.30260077 0.08543369 0.45755315 0.46829593 0.34925383 0.30665106 0.4154753 0.22962533 0.43773896 0.15493302 0.4398366 0.41286254 0.12699763 0.3960752 0.40928754 0.10352701 0.3058393 0.24791852 0.17263085 0.2815667 0.2230873 0.23362342 0.5530216 0.5763757 0.16276097 0.6794293 0.6278422 0.20210326 0.67289865 0.60577554 0.23122261 0.1896497 0.2378346 -0.16674054 0.41852736 0.6008469 -0.09436385 -0.16045707 0.25345677 0.5200322 0.32091314 0.43458223 0.5155644 0.31586936 0.4757665 0.321638 0.09118184 -0.05853845 -0.09524439 0.21444942 0.29639208 -7.4815005e-05 -0.08517408 0.005895257 0.3826316 0.06253342 0.0625645 0.055587642 0.0980902 0.22629306 0.41857725 0.026024893 0.87902975 0.85741615 0.78882754 0.8170873 0.8337695 0.69402647 0.6202939 0.7076278 0.7339996 0.39398503 0.014606021 0.1511173 -0.30405536 0.02871316 0.19743705 0.5558415 0.5849481 -0.1563634 -0.044579268 0.41958976 0.44504762 0.5269562 0.45221922 0.25930732 0.12949328 0.34259933 0.3868175 0.30044085 0.3567868 0.18454066 0.35260665 0.38053817 0.34064144 0.27879977 0.17162657 0.089022934 0.06804687 0.29542914 0.3177126 0.30442214 0.19934657 0.22579308 -0.10191579 0.4256928 0.50969094 0.55029285 0.24604951 0.58338535 0.5446025 0.025791518 0.089505106 0.54491115 0.44087395 0.23788223 0.1237233 0.0111620575 0.19008085 0.030016415 0.072041735 0.30083805 0.28729713 -0.031065673 -0.06321249 0.016929232 0.5906073 0.6283428 0.47349742 0.3065774 -0.016286816 0.049484238 0.71376705 0.7054854 0.611948 0.7702762 0.7254964 0.48655868 0.555674 0.57162154 0.61740875 0.42123508 0.5202496 0.5434382 0.5522386 0.61597914 0.6411389 0.41509843 0.46035495 0.5409608 0.5407472 0.6004703 0.62734395 0.3948959 0.48409343 0.2748529 0.38209534 0.81571734 0.76309144 0.29004568 0.07718541 0.7808815 0.7380942 0.698085 0.6241403 0.020230435 0.34543407 0.37414348 0.3513062 0.66567564 0.25172636 -0.09100798 -0.087218426 -0.23655325 -0.29251936 -0.05462941 0.019970544 0.29451138 0.53140336 0.56570643 0.030638233 0.11736952 0.07454435 0.42583948 0.3242694 0.20093563 0.33578336 0.27291822 0.18250166 0.2101263 0.2871605 0.19335172 0.2706587 0.21833006 0.09248089 0.18329248 0.10381584 0.22526266 0.12530577 0.29096434 0.29648215 0.13890517 0.32780886 0.08981866 0.27833194 0.32849053 0.1768184 0.15068337 0.22702923 0.25020128 -0.05038406 0.48393646 0.10023279 0.5392211 0.55767936 0.07369504 0.10852779 0.58727413 0.72988683 0.5914192 0.57367426 0.48461318 0.64639723 0.6927117 0.7729701 0.3512896 0.07836895 0.6045717 0.69276744 0.759871 0.11005948 0.10286802 0.6842448 0.094924666 0.0399167 0.13629621 0.16302353 0.61055815 0.6360815 0.6702423 0.7731942 0.7914336 0.39735848 0.22765075 0.10601477 0.12052557 0.15496016 0.6058075 0.63532007 0.6645031 0.82427716 0.8040258 0.7271288 0.6181282 0.62596416 0.75470704 0.72237456 0.75339115 0.7273631 0.6840868 0.6291506 0.70507735 0.68495685 0.639983 0.5476148 0.48960352 0.6326698 0.62822986 0.63885057 0.5405561 0.58064675 0.549415 0.5078637 0.5644128 0.59605867 0.61431015 0.62359506 0.6411772 0.6464964 0.17274182 0.6329942 0.27329627 0.16572855 0.54886127 0.353426 0.32231486 0.3674137 0.027150601 0.31820986 0.3682334 0.41361758 0.41344684 0.67797804 0.5815723 0.5230092 0.2982316 0.29791373 -0.12526917 -0.21189412 -0.26288608 0.00062315166 0.19056255 0.3877124 0.35523742 0.64322233 0.4308285 0.2971043 0.2412787 -0.20844413 -0.20959063 0.16418117 0.063907236 0.16215757 0.3964063 0.20820174 0.18322681 0.25523686 0.20984516 0.24829522 0.2651451 0.2700318 0.2570519 0.25164017 0.22420561 0.12067933 0.18164358 0.14906655 0.15427521 0.15637732 0.15823966 0.16107215 0.08145168 0.14017594 0.09293063 0.19756792 0.11952484 0.22927764 0.2773551 0.14650764 0.11737771 0.3157802 0.02940718 0.33259505 0.29325777 0.018872045 0.14315851 0.22716457 0.25799888 0.13311227 0.4318545 -0.03221 0.5287207 0.51245093 0.02516758 0.004804656 0.57672846 0.00053239614 0.611225 0.7346029 0.7854656 0.5756852 0.5572106 -0.18923597 0.7859508 0.8387649 0.4643073 0.41591462 0.38740146 0.38120556 0.7979286 0.83479846 0.116210215 0.16627449 0.3034907 0.40454912 0.5805424 0.7125293 0.5524578 0.63525295 0.6512169 0.6503856 0.1731663 0.20556861 0.26882714 0.3518819 0.4718524 0.53231996 0.571832 0.6521915 0.6759738 0.67236364 0.7950924 0.19592564 0.21109037 0.20203851 0.18854442 0.23064527 0.26682368 0.5232842 0.5357641 0.57357574 0.6065544 0.67708534 0.68609214 0.80894864 0.82987404 0.82028365 0.751168 0.56153893 0.18260926 0.21698155 0.24023113 0.23910488 0.21411389 0.5249809 0.5710521 0.61368454 0.6600326 0.66552424 0.8045998 0.7892947 0.58342254 0.5990373 0.7853289 0.7500168 0.7393304 0.78897744 0.76423573 0.7319138 0.7135934 0.7395537 0.76119906 0.5651654 0.6062199 0.69109535 0.4698971 0.63466805 0.53638685 0.56943804 0.5767752 0.59526086 0.43673158 0.63091516 0.63160527 -0.018744588 0.63350177 0.15955755 0.6228955 0.6179434 0.34293136 0.25478977 0.5957662 0.39474514 -0.20057265 0.39201605 -0.2925899 -0.25605863 0.30586725 0.32925624 0.4549699 0.4481563 0.4201904 0.31732726 0.38460284 0.31238285 0.307709 0.23797095 0.23847872 0.3112322 0.19346811 0.32537967 0.15550494 0.2104038 0.3812063 0.4162933 0.3429839 0.38606882 0.3243482 0.09364507 -0.29435351 0.2796743 -0.053875845 -0.079479046 0.18777181 -0.058831505 0.14172655 -0.13174084 0.10827325 0.1337185 0.20274836 0.15244322 0.14222524 0.111783355 0.11964804 0.11063379 0.10427636 0.13878575 0.11926459 0.11969354 0.19365036 0.24192365 0.06124928 -0.09710139 0.21190026 0.01575608 0.3251798 -0.018002365 0.3405894 0.05623706 0.32939586 0.1838637 0.34169757 -0.0758101 0.029293709 0.43166465 0.69821775 0.4928231 0.42628986 -0.07972423 0.81776965 0.39650008 0.3881624 0.85124683 0.27431166 0.20877372 0.891329 0.48204625 0.47819555 0.58697987 0.40863585 0.7427883 0.8157003 0.4677047 0.50506055 0.6128649 0.5807636 0.6561901 0.38135806 0.54598606 0.60228217 0.50665087 0.49692836 0.6307459 0.6145896 0.75824606 0.7513488 0.20193157 0.24120009 0.2757192 0.34324935 0.51974154 0.66253924 0.60897946 0.79504246 0.7769987 0.7468742 0.7258794 0.30823606 0.29945335 0.26505858 0.20978674 0.19668837 0.18657327 0.5074904 0.624124 0.6147118 0.47676522 0.42693567 0.47451025 0.44863886 0.57233655 0.59667957 0.7828965 0.78331554 0.7983711 0.7662848 0.7688087 0.76945496 0.68286425 0.7507174 0.7461709 0.675439 0.64566016 0.63402873 0.60437083 0.58106434 0.45373902 0.5241614 0.55032575 0.5074489 0.5851175 0.4532426 0.61195725 0.60746586 0.34723005 0.2747856 0.59178436 0.5078944 0.40297472 0.14335498 0.32457513 0.4951089 0.4434181 0.40292135 0.3668532 0.3420847 0.34518126 0.3505615 0.3765189 0.3099148 0.38968948 0.4783297 0.3079787 0.4907078 0.5032771 0.5230519 -0.19195397 0.39625978 -0.124558136 0.3480839 0.35593635 -0.21183296 0.20109865 0.28545308 0.16108756 -0.12763779 0.48938692 0.33438343 -0.09364021 -0.13198626 0.5414629 0.45107132 0.31186372 0.41741055 0.29865593 0.20888335 0.2740729 0.20228316 0.11590994 0.06407664 0.002102334 0.14455403 -0.026129209 0.03526581 0.18875754 0.20562896 0.09420068 0.2969873 0.08594504 0.33358076 0.0024776794 0.31144604 0.08096052 0.09741752 0.25374818 0.3637665 0.29926032 -0.30157116 0.37486404 0.3488806 0.2680833 0.70196635 0.29557902 0.21522604 0.17157456 0.76690996 0.38555032 0.38404083 0.84967923 0.38338006 0.47671747 0.7658125 0.38900602 0.47901505 0.6431466 0.6841831 0.4213431 0.4284281 0.6702707 0.53742427 0.49250066 0.2788692 0.28634968 0.36925304 0.49258304 0.43715167 0.4929908 0.69840246 0.6084446 0.49965626 0.30994803 0.29262 0.23354912 0.1362186 0.18542793 0.23749094 0.26292112 0.43715137 0.5105641 0.419118 0.2631539 0.3585057 0.5088947 0.5021009 0.48955312 0.5217511 0.51983166 0.45149896 0.35422623 0.5371836 0.50271213 0.80958486 0.80609965 0.8364694 0.7949136 0.7894571 0.6347591 0.66953874 0.77111435 0.7522191 0.62008667 0.6201558 0.5897652 0.54241765 0.4604562 0.5132333 0.53758496 0.50761724 0.4705814 0.56664705 0.44285846 0.6046972 0.19875714 0.5330938 0.053722642 0.5146875 0.44386834 0.34809852 0.1927588 0.36197206 0.20669603 0.43915433 0.522977 0.47244704 0.00039821863 0.39789522 0.38553205 0.39289683 0.4675635 0.5338551 0.30003732 0.31438226 0.57349813 0.5914445 0.5968667 0.52110076 0.42892507 0.19867401 0.043757938 0.56148684 0.4873582 0.3639114 0.28468108 0.21078765 -0.0021011755 0.42002487 0.48077118 0.34232962 0.16341667 -0.15223072 0.42293155 0.2641914 0.22484258 -0.019205287 0.05807042 -0.09905811 -0.18228084 0.325849 0.36426622 0.36422092 0.25516126 -0.031378802 -0.075302616 0.40113646 0.012558907 -0.08792814 0.50782776 -0.0969482 -0.109203234 0.5554462 0.21803583 0.5596388 0.4891775 0.14596683 0.40192893 0.34833062 0.1938203 0.13021187 0.086455084 0.03237424 -0.07546489 0.12782003 0.099380285 0.02107042 0.19425875 0.233107 0.11166734 0.2993622 0.1085093 0.3094269 0.04945375 0.24540216 -0.009369001 0.16699886 0.23776692 0.092508495 -0.16000149 0.21755984 0.4031073 0.48094824 0.42046842 0.41220856 0.4189034 0.52786463 0.5716154 0.1897842 0.18838242 -0.14259012 -0.25017434 0.4256922 0.5447712 0.40242052 0.39677048 0.37141025 0.542377 0.0069747195 -0.034474917 0.35218292 0.34260035 0.43951362 0.2798263 0.26755747 0.72347116 0.36309642 0.30450845 0.06048043 0.6796044 0.6914201 0.2894336 0.36866203 0.3768078 0.21352492 0.2594323 0.32671636 0.5458731 0.29179984 0.22633982 0.20415024 0.17212267 0.08058173 0.10699136 0.1682071 0.14945903 0.31696582 0.3417788 0.31852818 0.17536867 0.16632965 0.40678993 0.459835 0.38139468 0.30047244 0.5268016 0.50963557 0.31046832 0.57516295 0.6096037 0.60234463 0.5295553 0.4259888 0.6444526 0.8222003 0.81979114 0.83480144 0.81620944 0.7937145 0.65460783 0.7443577 0.69946426 0.5847111 0.5710225 0.58756495 0.5256335 0.3812416 0.5128384 0.46873057 0.4762481 0.5002603 0.50228554 0.52556556 0.47011623 0.5266075 0.0489541 0.22487386 -0.09181239 0.17732131 0.32639998 0.475241 -0.052592278 0.46181676 -0.13210279 0.49791595 0.5699235 0.56929654 0.17847787 0.24244276 0.62653095 0.6344912 0.6682972 0.5344884 0.17741397 0.6614853 0.63861626 0.6865964 0.65948755 0.49857396 0.63678455 0.63083947 0.537685 -0.03686826 0.38013595 0.54512537 0.5594336 0.62835574 0.5772184 -0.082478404 -0.1641841 0.23667084 0.47351062 0.5808143 -0.11253737 0.09758036 0.03538584 0.33401692 0.42052716 0.44693285 0.10668234 0.09542615 0.33395892 -0.22301786 0.102488525 0.14013061 0.109517604 0.07586004 0.5050586 0.47392598 -0.09484166 0.12183039 -0.10128473 0.5256382 0.53591394 -0.31882688 -0.033044063 -0.00869029 0.044628073 0.12559195 0.15279323 0.5415629 0.17790422 0.4681524 0.37402284 -0.35761216 0.16129258 0.29626876 0.14682487 0.02748534 -0.03401216 0.030343141 0.2126019 0.26266515 0.13689275 0.28840372 0.082559474 0.2206102 -0.081814274 0.17922676 0.15355271 -0.21325324 -0.028458238 0.13486138 -0.10571099 0.54643977 0.6000841 0.1890381 0.21883997 -0.35266954 0.41721264 0.42368174 0.43095654 0.50273675 0.5607796 0.60605925 0.624573 0.19410963 0.20435655 0.28256714 0.27898166 -0.21190712 -0.23550053 0.45247686 0.3884592 0.63913655 -0.13738556 0.5528635 0.58158994 -0.053787746 -0.11749902 0.6299494 0.34582806 0.46408242 0.372593 0.47947562 0.19590142 0.032996766 0.28255433 0.262824 0.4241243 0.44874248 0.36455426 0.30913043 0.28672743 0.13024314 0.39005148 0.3192289 0.4715388 0.4268797 0.36509013 0.5148749 0.29557452 0.33190995 0.605565 0.6247048 0.52179813 0.36878175 0.6188637 0.6553027 0.6582234 0.59709513 0.7732898 0.6794337 0.64971566 0.6637031 0.6711731 0.5288302 0.5298134 0.5081277 0.38031685 0.2682104 0.29357532 0.48017982 0.41314203 0.37976992 0.39891887 0.4822238 0.41956544 0.42734566 0.2405337 0.39063463 0.092256054 0.2220443 0.16763356 0.32710338 0.4282807 0.43164212 -0.12512787 0.3986233 0.43251812 0.4479555 -0.21547468 0.41290647 0.4304041 0.4487579 0.29268318 0.31297165 0.29942697 0.21008374 -0.037696466 0.25696427 0.28203538 0.404946 0.5637996 0.6753113 0.716943