# vtk DataFile Version 2.0
Really cool data
ASCII
DATASET POLYDATA
POINTS 5443 float
-9.534383 -6.200022 -6.2061734
-9.524989 -5.8318524 -5.8957467
-9.62637 -4.772633 -2.3517933
-9.650136 -4.024944 -4.912166
-9.70878 -4.2369337 -4.202542
-9.796561 -4.376605 -3.3787832
-9.961708 -4.1296473 -2.5832253
-9.777507 -4.136299 -1.8828201
-9.601346 -3.748012 -4.8562484
-9.709727 -3.4707289 -4.3431616
-10.0190325 -3.6721547 -3.322766
-10.080188 -3.4432242 -2.4456916
-9.925384 -3.4625103 -1.8052685
-9.6730585 -3.0616512 -4.3341756
-9.740751 -2.688103 -3.2533686
-9.956467 -2.796299 -2.429586
-9.855593 -2.8919005 -1.7914011
-9.731124 2.1331146 0.9342266
-9.636464 2.0073442 1.250429
-9.6481695 3.1102302 -0.80997545
-9.845109 3.060927 -0.09324508
-9.861791 2.6173549 0.6588516
-9.721032 2.6463635 1.3335462
-9.724668 3.848915 -0.7953301
-9.891263 3.438399 -0.3318721
-9.914115 3.5235689 0.34968928
-9.751543 3.3693109 1.1233442
-9.789807 4.303604 -0.4531767
-9.739182 4.3464217 0.41624087
-9.634681 4.2194524 0.7879282
-9.607707 4.9286685 -0.32730043
-9.701267 6.681493 -4.3357997
-9.846592 6.6927834 -3.727567
-9.564413 6.389382 -2.9547403
-9.762684 7.217601 -4.24624
-9.753864 7.499187 -3.465046
-9.727579 7.5514297 -2.8220205
-9.71506 7.757317 -3.8649592
-9.613964 8.007492 -2.7149787
-8.776733 -7.7914586 -5.9544673
-8.954685 -6.92739 -7.152718
-9.196235 -7.0641975 -6.4599276
-8.944491 -7.414398 -5.434598
-8.900998 -7.218067 -4.859169
-9.128896 -6.3670506 -7.012869
-9.429318 -6.4639864 -6.3161244
-9.414771 -6.5089784 -5.5862927
-9.164593 -6.6271076 -4.8204117
-8.745617 -5.9223776 -3.4861176
-8.950676 -5.812752 -7.057109
-9.296985 -5.609039 -6.2741895
-9.316833 -5.128508 -5.771183
-9.44234 -5.4581776 -4.8568993
-9.186011 -5.5847554 -3.7473936
-9.431708 -4.928803 -2.5860424
-9.052492 -4.914828 -1.6521715
-8.970235 -4.6489367 -6.3047447
-9.261446 -4.377574 -5.5447717
-9.416134 -4.474801 -1.6075972
-9.100813 -4.288316 -1.1683433
-8.720888 -3.976517 -6.0916038
-9.118384 -3.8189464 -5.54205
-9.312113 -3.6049945 -1.0544984
-9.071339 -3.0903049 -5.1475053
-9.550523 -3.0917392 -4.6080546
-9.426996 -2.4899604 -3.6469955
-9.496843 -2.6308084 -1.4104475
-8.771071 -2.4551964 -0.4856603
-8.786388 -2.28137 -4.4560795
-9.06514 -1.8871666 -3.4539468
-9.527293 -2.1855652 -2.4223156
-9.130343 -1.8427774 -1.6370037
-9.053808 1.1833227 1.1768224
-9.25195 1.6032887 -0.19752382
-9.37635 1.5729231 0.572371
-9.315828 1.582191 1.3627476
-9.094176 1.9435794 1.8978245
-8.600685 3.0231073 -4.776685
-9.121285 2.4197857 -1.2279172
-9.541413 2.1635966 1.5014652
-9.139417 2.4560785 2.0141068
-8.649924 3.8875287 -5.0111036
-8.753722 3.4553657 -4.777145
-9.557008 3.8987486 -1.2031205
-9.472387 3.7208428 1.3926344
-9.173993 3.2883263 1.8199124
-8.85062 5.12583 -4.0512576
-9.356217 4.0615845 1.2350843
-9.029863 3.9323366 1.7311078
-9.259968 5.891213 -4.348353
-9.489628 5.802618 -3.5642538
-8.95628 5.547849 -2.5975525
-9.128248 5.788026 -1.6161064
-9.4467125 5.207761 -0.43323138
-9.237088 5.3985186 0.3132494
-8.936182 5.270207 0.7926981
-9.442277 6.7901454 -4.7984815
-9.541778 6.429614 -4.599631
-9.425429 6.2185574 -2.538616
-9.413063 6.2364745 -1.6920462
-9.002143 6.5573916 0.3446133
-8.755954 6.0412383 0.8906777
-8.672407 7.0491943 14.150245
-9.2977705 7.238208 -4.8396115
-9.467956 7.5488486 -4.516971
-9.310144 7.777378 -1.4535432
-9.06464 7.3631334 -0.55318606
-8.801082 7.0650578 0.23349684
-8.543695 7.5181904 11.790584
-8.55028 7.7888513 12.5557995
-8.783954 7.5514526 13.798407
-8.791459 7.5617013 14.466533
-8.633304 7.568586 15.127203
-9.119505 8.135996 -4.2214355
-9.35643 8.301811 -3.3310316
-9.404401 8.313621 -2.539841
-9.261765 8.205093 -1.719077
-8.865521 7.977251 -0.94625854
-8.603978 8.39956 12.556405
-8.771072 8.3671255 13.63222
-8.743572 8.165551 14.560337
-8.65818 8.342679 14.889894
-8.892636 8.8968725 -3.1787777
-8.908314 8.929941 -2.5619729
-8.918741 8.789808 -2.115675
-8.54474 9.207763 12.831831
-8.625209 9.40636 13.434256
-8.597245 10.483396 13.4211035
-8.561409 12.017204 12.971735
-8.737292 13.026195 11.47969
-8.809389 12.619286 12.533156
-8.800244 12.335792 13.562908
-8.797638 12.7187 14.322729
-8.615856 12.820731 15.224987
-8.833156 14.252076 9.6001
-9.004047 13.895716 10.412392
-9.180905 13.868259 11.452862
-9.148554 13.492252 12.478487
-9.170953 13.742438 13.511264
-9.006409 13.70586 14.318445
-8.641078 13.422274 15.399183
-8.846038 14.805347 9.220164
-9.147231 14.637842 9.720181
-9.43422 14.866941 10.604029
-9.429729 14.678805 11.172227
-9.154243 14.301068 12.961231
-9.173552 14.443438 13.477777
-9.087446 14.195141 14.04553
-8.680747 14.003454 15.369846
-8.847443 15.223319 9.250722
-9.11029 15.383952 9.667072
-9.376564 15.479319 10.520667
-9.403112 15.291301 11.575987
-9.110847 15.114127 12.613667
-8.958197 15.149632 13.148693
-8.674609 14.849286 14.225381
-8.9682 15.955478 9.885207
-9.1267605 16.1711 10.623299
-9.108123 16.367004 11.473409
-8.96156 16.34064 12.284733
-8.554188 16.763762 16.640789
-8.610212 16.722528 17.017916
-8.750375 16.705826 10.845501
-8.799435 16.851027 11.435544
-8.751274 16.90618 12.051964
-8.534817 17.525002 15.994237
-8.548414 17.32643 16.500795
-8.583935 17.212837 17.257078
-7.5982156 -8.197428 -10.3036
-7.631618 -8.304026 -9.864796
-8.358281 -7.8958664 -7.236829
-8.157308 -8.106693 -6.3347745
-8.294978 -8.000146 -5.5239143
-8.262643 -7.726681 -4.781918
-7.5841837 -7.8729115 -10.4232435
-8.153051 -7.163999 -8.101674
-8.467417 -7.7131104 -7.309577
-8.276937 -7.6008463 -4.5027165
-8.15736 -7.2247815 -4.105057
-8.049723 -5.935763 -7.925029
-8.635044 -5.4031763 -7.1591334
-8.561086 -5.1488414 -1.5825106
-8.333191 -4.771351 -1.0254358
-8.389581 -4.5788803 -6.85687
-8.255796 -4.368575 -0.83611774
-8.021678 -3.8942678 -6.838776
-8.220968 -3.7082815 -6.4285884
-8.612857 -3.5251975 -0.460527
-8.22133 -3.2653956 -0.23488544
-8.648939 -2.812385 -5.3064184
-8.548857 -2.172828 -0.3290041
-7.9957366 -2.3978803 0.24110326
-8.367981 -1.3615924 -3.3159168
-8.435089 -1.3319664 -1.169915
-8.201866 -1.8487775 -0.058470815
-8.267609 -0.335343 -2.0486252
-8.084752 -0.9705365 -0.9653748
-7.6453004 0.82251847 -5.0791187
-7.8709874 1.1679918 -4.6812344
-7.6441493 0.6167936 -2.9900038
-7.9359612 0.09682044 -1.4335327
-8.381203 0.75156033 -0.04863938
-7.911198 0.8026357 0.9003813
-8.498142 1.1324365 1.7580643
-7.731289 2.0349479 -5.774996
-8.007125 1.9901505 -5.332652
-8.093253 1.5892243 -4.8902655
-7.9416466 1.554303 -3.7782896
-8.442378 2.0399957 -1.555935
-8.679342 1.6238427 1.9699614
-7.8587112 2.6222637 -5.9111953
-8.336898 2.7261312 -5.1738925
-8.499694 3.0962224 -4.2579007
-8.347649 2.9698482 -3.6916566
-7.645247 2.7649999 12.725382
-7.6317945 2.8538127 13.238264
-7.579096 3.0885165 13.928704
-8.021519 3.6151164 -5.806928
-8.342828 3.4689505 -5.4559083
-7.6909547 3.2623224 12.104001
-7.750411 3.332672 12.586077
-7.711626 3.1752546 13.306649
-7.776355 4.078148 13.049032
-8.259688 5.194928 1.5526156
-8.0313835 6.171443 13.853192
-7.7059493 6.1488824 14.569587
-8.40745 6.6103377 -5.137854
-8.5042715 6.1552534 0.9174853
-7.582165 6.7828617 5.769796
-7.635972 6.8283224 6.3409204
-7.6232734 7.0549064 7.9905806
-7.729015 6.7955728 8.612947
-7.777133 6.6516905 9.748444
-8.018419 6.7438126 10.576371
-8.172428 6.7036176 11.404626
-8.314043 6.809537 12.620094
-8.382515 6.7207894 13.616755
-8.251265 6.5406823 14.612546
-8.132823 6.7038326 15.272479
-7.800385 6.9791584 15.96161
-8.554584 7.3378997 -5.0599256
-8.579657 7.2570896 0.3354139
-8.335773 7.044466 0.7093036
-7.539691 7.3098807 5.077549
-7.5950584 7.4291325 5.497788
-7.5871468 7.4469895 6.3373737
-7.5828223 7.680076 7.672633
-7.665076 7.707145 8.242353
-7.8652163 7.3573 9.296619
-8.307511 7.4519386 10.860266
-8.407112 7.574537 11.347128
-8.338047 7.7381144 12.41328
-8.502835 7.273764 15.248199
-7.6475863 7.6535077 18.109577
-7.895231 7.8176665 18.753067
-7.759925 7.661151 19.461487
-7.6613812 7.722173 19.913761
-8.470737 7.9866576 -4.734046
-8.533004 8.42982 -4.3637815
-8.507728 8.450228 -1.1629024
-7.5959196 8.237464 8.797865
-7.781635 8.234588 9.755376
-8.028747 8.501603 10.936478
-8.30033 8.585237 11.560065
-8.384175 8.533598 15.395127
-7.9206624 8.389844 16.186443
-7.8294234 8.6818495 17.508827
-8.065102 8.61901 18.778843
-7.934915 8.437069 19.353132
-7.7304487 8.20287 19.989325
-8.354357 8.8421755 -4.0352187
-8.262409 9.199402 -3.3406186
-8.348336 9.173097 -2.581434
-8.422828 8.93275 -1.8761752
-7.805294 9.340734 11.000722
-8.103023 9.1838045 11.669773
-8.473295 9.519006 12.485558
-8.240148 9.648182 14.825133
-8.166004 9.387074 15.179499
-7.907252 9.130516 18.506073
-7.86855 9.2074175 19.195312
-7.610697 8.948625 20.016066
-8.061961 10.532763 12.01424
-8.434938 10.611271 13.679737
-7.960461 10.664864 15.217516
-7.6429086 10.60047 16.208942
-7.534362 10.516521 17.910679
-7.763265 11.217454 11.886042
-8.370558 11.638789 12.533355
-8.278134 11.584652 15.331662
-8.047766 11.812703 16.168745
-7.6513047 11.720873 17.46631
-7.5600247 11.482018 18.35962
-8.287958 12.997982 10.698278
-8.3249 12.3182 15.325595
-8.354382 12.651827 16.405104
-7.9682355 12.878531 17.203106
-8.581728 13.94059 9.860304
-8.415588 13.4098835 16.278479
-8.683152 14.747615 9.164033
-8.735504 14.4417 9.356081
-8.24344 14.294007 15.631514
-8.181409 14.472745 16.244434
-8.47773 15.3939495 9.083284
-8.124653 15.758706 15.292736
-8.017066 15.760206 16.275053
-7.9682918 15.727486 17.536293
-7.634735 16.297197 21.215366
-8.251902 15.805401 9.215545
-8.610744 16.108223 9.691115
-8.021778 16.616602 13.226492
-8.113542 16.209139 14.63905
-8.293314 16.672625 15.1157875
-8.408047 16.396605 16.64275
-8.396843 16.489468 17.436737
-8.146679 16.627352 18.198586
-7.645525 16.464622 19.772404
-7.9838314 16.839643 20.722572
-7.8512774 16.727531 21.36179
-7.7087016 16.858986 21.901016
-7.966682 16.747335 10.164033
-8.282699 16.972515 10.728741
-8.3915 17.132845 11.4444685
-8.355002 17.037973 12.341793
-7.7204003 16.946392 13.159963
-8.279676 17.7109 14.622433
-8.449179 17.7803 15.927277
-8.439547 17.43111 16.293514
[...]
POINT_DATA 5443
SCALARS features_00 float 1
LOOKUP_TABLE default
0.50121987 0.45361054 0.56338024 0.3400334 0.40842462 0.5321394 0.60707855 0.609431 0.34826475 0.40462917 0.555292 0.62875396 0.63192576 0.40706867 0.5147441 0.60200894 0.616291 0.59069264 0.59619087 0.48973888 0.5376599 0.5789223 0.58837193 0.43213153 0.5019589 0.52385366 0.553277 0.42782244 0.4621139 0.47193903 0.38651866 0.6499622 0.6174439 0.5150589 0.68443495 0.6736715 0.63758755 0.69457746 0.6459348 0.65788186 0.58562696 0.62207294 0.64474624 0.59936833 0.5169389 0.5419587 0.5670272 0.57078385 0.48087993 0.438115 0.41506332 0.36233348 0.41507977 0.4742775 0.53806424 0.54023975 0.32013923 0.31457323 0.57850254 0.5591084 0.28328925 0.3001432 0.5773529 0.307104 0.37492552 0.4502303 0.5701885 0.4891374 0.34243983 0.41522056 0.51902175 0.44568586 0.5700621 0.5518544 0.57455695 0.58697176 0.58163166 0.3381755 0.45162 0.59456325 0.5756394 0.33976808 0.3278213 0.3610256 0.51590663 0.54377276 0.352828 0.4729309 0.4636016 0.53086096 0.47348386 0.32243094 0.24746263 0.35423228 0.39604083 0.39564204 0.669639 0.63276255 0.43731323 0.33979002 0.39604363 0.39332527 0.39647615 0.68634325 0.69508255 0.56530094 0.48887077 0.44036335 0.2330086 0.2633978 0.3660679 0.37971598 0.35445482 0.6972685 0.68466353 0.6385428 0.5891251 0.53788525 0.24129552 0.30556965 0.33658755 0.29739803 0.67830366 0.65019274 0.624359 0.20839697 0.221726 0.12965384 0.1547008 0.35099432 0.22344482 0.2066698 0.21317795 0.16393572 0.60968494 0.5613525 0.46287733 0.310647 0.25249526 0.19060552 0.14847025 0.67216617 0.6649131 0.67079145 0.5836689 0.30149 0.23193306 0.1819184 0.11568384 0.69439405 0.7031853 0.71185344 0.56438065 0.36510372 0.25189853 0.111334294 0.6977992 0.673607 0.57837546 0.44524783 0.25244662 0.254535 0.61486447 0.55702245 0.47711444 0.31894392 0.30182022 0.3022981 0.57484555 0.55669534 0.58848035 0.62011284 0.60257393 0.56809235 0.565085 0.4552775 0.59362143 0.55292565 0.5061468 0.42353266 0.38912427 0.49686772 0.47580445 0.30803043 0.477688 0.23833995 0.24562865 0.50654685 0.467991 0.27408487 0.45515746 0.4128938 0.31497687 0.3349597 0.392982 0.10958118 0.25710902 0.32181022 0.3065089 -0.13601533 -0.07289012 0.45508122 0.50689834 0.5634345 0.39546135 0.36907262 0.33137584 0.1879153 0.24658947 0.57369107 0.3989805 0.36716625 0.2874572 0.21641187 0.38640422 0.40555933 0.41022432 0.4051151 0.38755187 0.34615102 0.38529846 0.4127861 0.3734911 0.37257767 0.33447695 0.31472966 0.58247507 0.40026468 0.5544531 0.48462898 0.29787585 0.25460362 0.20248885 0.188564 0.1976372 0.2800196 0.3778543 0.38150245 0.3651864 0.36363375 0.6549865 0.45669094 0.43787366 0.63596135 0.57804483 0.47453332 0.32080597 0.2843858 0.23205245 0.20571584 0.21657509 0.2556973 0.3645178 0.5648624 0.60476017 0.6644105 0.67502356 0.67359066 0.6841766 0.56010926 0.25213197 0.193283 0.16453859 0.19289248 0.19761649 0.12572043 0.2722102 0.4937694 0.5677657 0.6252936 0.6767746 0.66751665 0.648139 0.61425436 0.118077725 0.1601421 0.17206462 0.14166349 0.10024538 0.36620396 0.4334396 0.5337175 0.07827233 0.1258272 -0.0066885427 -0.09472939 0.08166777 0.040835023 0.1115614 0.06367201 0.032384597 -0.016979905 0.035073873 0.39869222 0.13413772 0.106239006 0.07984823 0.5428201 0.1277103 0.6525538 0.62503684 0.082614675 0.05912967 0.6737373 0.07160517 0.11515499 0.13035884 0.5155015 0.6552688 0.67871666 0.25338632 0.11290649 0.21525821 0.21410671 0.23529279 0.23730895 0.4036402 0.5531948 0.553226 0.54046464 0.5856747 0.59117025 0.5303826 0.4294153 0.2460164 0.3144522 0.34575635 0.31060874 0.32163867 0.31076315 0.41633773 0.56518 0.5932503 0.57592463 0.3396363 0.39356333 0.35649014 0.343235 0.4563272 0.54641473 0.59711784 0.591478 0.31860155 0.38291705 0.35782307 0.29370242 0.37760773 0.5294406 0.558994 0.64140356 0.6219288 0.5287027 0.48272964 0.50665253 0.5835098 0.6051089 0.47060478 0.5596684 0.49199268 0.50136805 0.56269956 0.5521691 0.40634948 0.52023244 0.49588212 0.4868189 0.2813254 0.34619498 0.3821193 0.16244833 0.33783928 0.017869197 0.14315942 0.47120154 0.5164261 0.34858638 0.45190737 0.49802512 0.49649888 0.42788625 0.38459745 0.5414772 0.24164298 0.36078325 0.39251053 0.41328126 0.2965292 0.36942858 0.40372664 0.39289984 0.36738452 0.38230497 0.38968968 0.35011128 0.069587514 0.15551178 0.4107883 0.395938 0.3334603 0.41485316 0.050610922 0.17389655 0.37711996 0.27079126 0.58042216 0.5136715 0.31463704 0.2244948 0.12579991 0.11470197 0.40528512 0.69480145 0.6195475 0.44418603 0.37206805 0.34638304 0.658255 0.7275722 0.73665726 0.43366566 0.4236696 0.80820733 0.66846585 0.41534516 0.47752398 0.6785376 0.7133033 0.70618093 0.70783055 0.6025797 0.5127522 0.47003737 0.70883846 0.5665095 0.44821936 0.2631635 0.21328267 0.23308629 0.6083535 0.63612354 0.62724286 0.60269904 0.58484626 0.5512833 0.4898951 0.23947158 0.20690516 0.14903693 0.08758108 0.0974966 0.031627037 0.35019255 0.42811638 0.16548279 0.24034798 0.2173 0.035796616 0.3873882 0.42618442 0.7158905 0.66288316 0.24166456 0.30158317 0.0076576793 0.12893435 0.3878984 0.442882 0.6596749 0.55995953 0.47136027 0.38542473 0.0031563062 0.2642937 0.36780608 0.38155237 0.5857688 0.44594732 0.36400878 0.48427022 0.058733642 -0.07664369 0.19205202 0.2852394 0.44063315 0.40978563 0.45691139 0.4620955 0.5622581 0.58915675 0.5279958 0.51089597 0.5013164 0.46566784 0.5127349 0.270477 0.2963725 0.40041137 0.5849009 0.5598217 0.24980433 0.26268134 0.29088017 0.25091243 0.22699171 0.35893667 0.46608657 0.5358094 0.5296029 0.1288765 0.45668453 0.504343 0.6355108 0.5644795 0.49370918 0.6687156 0.55049783 0.59299475 0.357595 0.46744287 0.41024628 0.5206835 0.3558213 0.32109576 0.4746694 0.2036878 0.20085713 0.24267562 0.28326982 0.120486125 0.42613566 0.5169111 0.5388423 0.5313169 0.10589704 0.07892533 0.32344705 0.49951598 0.5334925 0.5490372 0.43777925 0.49648917 0.5256287 0.52855814 0.0734206 0.5521139 0.56481755 0.36830577 0.42847753 0.44445366 0.4700514 0.48034984 0.5153608 0.19312705 0.50918657 0.5314232 0.28914613 0.35525486 0.29810065 0.3988468 0.47974253 0.22621047 0.3759989 0.39674988 0.09431192 0.084508404 0.12093615 0.23653716 0.4530442 0.10762637 0.16396283 0.33328497 0.32352918 0.029396806 0.06984461 0.087526985 0.3578433 0.32540935 0.16137864 -0.08773267 0.34252843 0.28868788 0.27148795 0.49603406 0.17071119 -0.08652665 0.029799342 0.2703397 0.24584463 0.72738737 0.63712496 0.2539969 0.35951692 0.2715661 0.5320382 0.66214556 0.7181546 0.7473732 0.3660766 0.31992528 0.9548336 0.69284034 0.34414637 0.88597125 0.63131166 0.52282447 0.5398255 0.5067662 0.45906603 0.50035435 0.34482306 0.4265465 0.54566145 0.31206357 0.16085336 0.15758298 0.28939444 0.3411561 0.83701074 0.7704429 0.33506513 0.445862 0.5091243 0.5730078 0.7965057 0.73985815 0.24359572 0.5230427 0.604102 0.74087024 -0.06838478 0.39038926 0.46002743 0.57616407 0.64654064 0.5951772 0.49232304 0.30072474 0.3455519 0.41189647 0.5042127 0.4997957 0.46673462 0.4217182 0.2244075 -0.029808499 0.46639544 0.45471767 0.42133334 0.29067722 0.023751106 0.3859884 0.29541034 0.45358646 0.39355928 0.23680021 0.45450252 0.3896855 0.1048677 0.47240463 0.19102943 0.46660358 0.15773717 0.1418038 0.13828373 0.11772009 0.46022078 0.34943062 0.20810933 0.24252686 0.15626496 0.12476709 0.11085239 0.3460865 0.3529871 0.22712244 0.18599589 0.15081576 0.13927792 0.4177685 0.35666835 0.2405856 0.1838828 0.4456141 0.40105677 0.39904016 0.4402849 0.2536028 0.30521548 0.392584 0.2154149 0.18934266 0.3756848 0.1809963 0.16179629 -0.002930209 0.08169806 0.47251445 0.09317766 0.18984622 0.31468794 0.38548124 0.43583554 0.4161468 0.46462166 0.5055827 0.5106801 0.48698318 0.08043458 0.49517143 0.52521735 0.39345914 0.429847 0.4970537 0.49884415 0.49182647 0.07227657 0.095252044 0.33168247 0.52173406 0.50050145 0.53254867 0.07547194 0.4910512 0.49009797 0.24054448 0.33881783 0.37200004 0.069549136 0.05337828 0.13765745 0.28994644 0.39310503 0.19437826 0.058656037 0.14893758 0.3640898 0.088459305 0.031399082 0.039081037 -0.023865357 0.33801964 0.33562997 0.1455838 0.7081248 0.36405498 0.3640133 0.16766644 0.22075894 0.98938596 0.79378784 0.0656921 0.35413027 0.60445714 0.67658937 0.6736251 0.38004667 0.61046636 0.64817303 0.31150407 0.3599668 0.37001145 0.29929644 0.93128455 0.69516104 0.35616553 0.41244513 0.40787604 0.8209262 0.13921542 0.78774244 0.65959144 0.37965494 0.11368936 0.18091908 0.35100758 0.35942346 0.8553972 0.8449608 0.7672628 0.40708885 0.54900354 0.6191968 0.68044204 0.82498264 0.6598959 0.6973485 0.7436068 0.781696 -0.2423124 0.6832342 0.6508032 0.22505203 0.2504248 0.46059453 0.631932 0.52664423 -0.027226675 0.47024274 0.46670672 0.162325 0.4658302 0.45859718 0.4265107 0.35497308 0.10964109 -0.2277993 0.43985116 0.42371762 -0.09506248 0.013999462 0.35110146 -0.04997903 0.16096729 0.095401324 0.24253525 0.23612285 0.2310219 0.12445179 0.4181579 0.2559362 0.19864284 0.4829231 0.4687022 0.1946505 0.18244854 0.3109361 0.5001994 0.47714987 0.42371875 0.27652714 0.41832882 0.4811301 0.4564008 0.41111833 0.37399378 0.3281796 0.4876934 0.5090543 0.41993833 0.45734793 0.5067313 0.53882885 0.5485519 0.46656135 0.50346833 0.5674895 0.15542197 0.4990719 0.4267463 0.5449025 0.5389124 0.5069002 0.45246205 0.27660576 0.027885934 0.54606974 0.54857427 0.54328215 0.40590304 -0.014197825 0.5442778 0.54542387 0.54504615 0.11144975 0.07957206 0.14730155 0.02372461 0.17023191 0.18618532 0.36221576 0.3844507 0.4156912 0.45190692 0.41833663 0.019619692 0.0956654 0.27100787 0.29854727 0.40615708 0.32582194 0.41886103 0.4531259 0.4194476 0.42843473 0.14353837 0.409244 0.44608694 0.4376676 0.44793743 0.1482711 0.45656455 0.46793377 0.029594272 0.46120873 0.10930665 0.15313688 0.30600867 0.26619482 0.035139587 0.23181888 0.22055393 0.27424583 0.0029364433 0.040429525 0.52648306 -0.2287738 -0.06582754 -0.12650341 0.49031717 0.42741394 -0.17983222 -0.30849126 0.5057626 0.44321305 0.083389565 0.12897149 0.6364292 0.36929783 -0.5483444 0.5674877 0.54136926 -0.013532378 0.51708615 -0.15759736 -0.07072639 0.43410456 0.4397797 0.5726419 0.28628805 0.56291914 -0.06952935 0.39157268 0.42432317 0.52866626 0.45233527 0.45379215 0.3917563 0.33898073 0.5495015 0.086134434 0.39749837 0.59521306 0.55015314 0.12401386 0.19961995 0.609691 0.2529724 0.39477912 0.543634 0.830147 0.80268157 -0.32795316 0.67780316 0.6912542 -0.31146395 0.7019123 0.6531528 0.66087615 0.62924737 0.5703758 0.58595717 0.6112219 0.51254165 0.11246097 0.45930436 0.43287385 -0.078557864 0.44646573 0.4498382 0.013900574 -0.07104697 -0.28410655 -0.17157724 0.43962073 0.3838277 0.29067925 -0.2588847 -0.12109262 0.6115383 0.6803676 0.69888294 0.02904589 0.5746391 0.64757764 0.69172263 0.70857626 0.17776972 0.027429081 0.5860294 0.63429034 0.67998075 0.7044507 0.35657442 0.043049477 0.6299854 0.6562047 0.6856412 0.42769295 0.38348985 0.51658684 0.33267725 0.49989504 0.45717412 0.4738546 0.45830578 0.5025598 0.41445428 0.44046324 0.56254244 0.52926004 0.47899485 0.50418156 0.5076646 0.5824419 0.60659325 0.60650337 0.5283144 0.57481897 0.61531425 0.62699616 0.7626054 0.78826916 0.7063571 0.7289523 0.7780309 0.769681 0.6840608 0.70603395 0.73723143 0.44645327 0.47472668 0.555668 0.68942076 0.09797117 0.048299335 0.42884457 0.42698112 0.1930229 0.08134694 0.03989031 0.49192286 0.056707337 0.55093074 0.5581153 0.54721475 -0.009652551 -0.009584375 0.5554016 0.5424406 0.53256994 0.3978235 0.37365705 -0.062801436 -0.03294365 0.20575893 0.24511677 0.23473419 0.1791592 0.1452646 0.063537896 0.22768982 0.30397403 0.29545978 0.36323857 0.3443061 0.29003632 0.18036014 0.058611773 0.08827383 0.29494697 0.33549553 0.32329804 0.14816502 0.30924964 0.25291577 0.3952008 0.41491467 -0.13604333 0.021503653 0.37750763 0.35561666 0.34231213 0.42760062 -0.080681235 0.40204483 0.49761522 0.54607916 0.27110684 -0.04911068 0.3575756 0.5343643 0.5604567 0.5964523 0.3413424 0.56120706 0.63465285 0.6595471 0.514766 -0.106899664 -0.2642522 0.06539147 -0.2761054 0.6515924 0.07572456 0.12816739 0.10156662 -0.18323344 -0.47989306 0.64755714 0.18834984 0.016953707 0.22347006 -0.18019676 0.67284405 0.3071475 0.3702672 -0.21464047 -0.12802835 0.07417986 0.20651886 0.63033956 0.5743475 0.5720989 0.47573626 0.44272584 0.39144814 0.47215885 0.3857085 0.104697056 -0.010866173 0.4055937 0.25218517 0.12921683 0.17442158 -0.21902846 0.5114093 -0.16397598 0.5183791 0.65196764 0.642866 0.6292975 0.5442637 0.5838649 0.60006684 0.52914786 0.51007956 0.45612597 0.48843712 0.09127185 0.46726447 0.43573287 0.11482145 0.41021743 0.34952554 -0.18100503 -0.10611732 0.0057851374 0.40695113 0.3806318 0.10769833 -0.1084872 -0.14307757 -0.19648929 0.06272302 0.1122466 0.44090647 0.5895367 0.6495461 0.6679467 0.11050549 -0.11237003 -0.19291744 0.09231899 0.41796565 0.69738585 0.66394687 -0.02765955 0.5383172 0.7049786 0.6809916 0.26771715 0.26256755 0.08959319 0.5210999 0.5898506 0.61931515 0.67902994 0.39368236 0.19823636 0.17528503 0.5517562 0.5057241 0.30587846 0.49351037 0.4062795 0.3706049 0.4480845 0.42292273 0.44395667 0.43272114 0.52475893 0.49172226 0.4734556 0.5176284 0.5862299 0.53659594 0.53668547 0.60161316 0.63388705 0.62759006 0.73192835 0.7624331 0.78366816 0.7628505 0.6630983 0.63795745 0.73636234 0.7048756 0.4419223 0.68270755 0.2537689 0.644987 0.27887416 0.14207704 0.39904913 0.5370772 0.60041463 0.3683099 0.3254528 0.04909391 0.52136135 0.5682083 0.47580183 0.45572793 0.057812333 0.275762 0.37751937 0.44557968 0.5230541 0.5665032 0.061416693 0.315672 0.2759042 0.342687 0.37613618 0.58157825 0.044674173 0.030988615 0.34217322 0.3422644 0.3037735 0.27924275 0.5704507 0.55153406 0.06728808 0.23317538 0.26893875 0.3208345 0.20500945 0.22145295 0.5399952 0.41516954 0.47445214 0.11554729 0.10504701 0.15895885 0.113563344 -0.010483 0.07626724 0.15981582 0.19777125 0.28045177 0.10057348 0.05423618 0.0367309 0.18733531 0.082041696 0.29587156 0.2652514 0.100590646 0.15154082 0.047669612 0.025433073 0.24633598 0.34001705 -0.0141357705 0.23908328 -0.015582565 0.40532768 0.44019592 0.2099806 -0.0017240047 -0.049616307 0.52037317 0.18650131 -0.2903069 0.6193712 0.3261517 0.35873544 0.10530338 -0.09046228 -0.053479373 0.39771056 0.6801529 0.5315684 0.4167393 0.29209298 0.49354717 0.6313273 0.698135 0.7016881 -0.02603522 -0.07312922 0.7158682 -0.0064267516 0.03619884 -0.22544548 -0.116929516 -0.0918104 0.7078018 0.70494324 -0.023765981 0.6920049 0.66710424 0.36549062 0.34631526 0.10064863 0.06896118 0.122281596 0.6737714 0.65454394 0.5982138 0.5045769 0.4143778 0.37961432 -0.30239505 0.085141264 0.059162766 0.102870874 0.105633184 -0.2120851 0.11081371 0.14805782 -0.12878829 0.22600545 0.23162372 -0.0158827 0.35899174 0.3501652 0.29339644 0.48988545 0.51597047 0.5080036 0.50507474 0.49350768 0.48084077 0.17208004 0.24779427 0.45814985 0.42355025 0.22918962 0.47676122 0.5787092 0.60327077 0.33869892 0.29827365 0.029458119 -0.09751475 0.6157932 0.3490055 0.33701104 0.29432157 -0.036223732 0.020242803 0.01243965 0.61554277 0.3063085 0.06466895 0.60872376 0.3806115 0.16593623 0.4412793 0.56880116 0.57160527 0.39453822 0.2921492 0.5143763 0.54740584 0.54607314 0.5004647 0.3469684 0.37995502 0.36259526 0.54789335 0.4942925 0.43771327 0.6093455 0.5931291 0.53567165 0.5365079 0.6353723 0.6438234 0.62852347 0.5999651 0.58902055 0.66561115 0.6406859 0.61209476 0.67121613 0.66488224 0.63932157 0.63694906 0.6511198 0.62069017 0.70559794 0.76353574 0.7664974 0.7272629 0.6973429 0.677431 0.29293397 -0.16939001 0.6503721 0.7193165 0.7198231 0.6783076 0.5850482 0.40905702 0.6108204 0.70683396 0.6917764 0.62315774 0.42242768 0.37931475 0.53110766 0.6042154 0.6538396 0.1626009 0.67532325 0.65451837 0.59323704 0.2986759 0.53645045 0.62996477 0.6552261 0.26954004 0.24365672 0.6063031 0.6461008 0.45978796 0.047811948 0.53812426 0.5946764 0.5477889 0.19070816 0.21663384 0.59636617 0.15208292 0.24128601 0.2851596 0.3357167 0.58490276 0.1835563 0.10323036 0.08912498 0.167831 0.5302769 0.15020159 0.22018307 0.47301772 0.3705923 0.27589846 -0.095153615 0.04812251 0.06444192 -0.07228061 0.2770848 0.101863906 -0.01971381 -0.057764344 -0.23804015 0.2550038 0.17342919 0.32089764 0.51122844 -0.07701108 0.01869502 -0.008989141 -0.22296244 0.32208037 0.29249078 0.23504828 0.33779293 -0.08824 0.033495445 0.2798972 0.39747044 0.39744616 0.28717607 -0.09098823 0.31500298 0.32241336 0.24764307 0.3342987 0.3995894 0.46162665 0.0033169389 0.022143558 0.5641459 0.087941006 0.6379024 0.5986748 0.47377264 0.46153438 0.2783893 0.6743313 0.703119 0.6501589 0.13176082 0.009741545 0.116553 0.41709492 0.5662962 0.72839725 0.72799087 0.31128043 0.2585104 0.07826352 0.06404741 0.0415918 -0.048103735 0.7162578 0.7025341 0.6715622 0.43232173 0.3115362 0.2172352 0.12857045 0.04374121 -0.12876125 0.67400295 0.65825236 0.65564644 0.59008175 0.47689337 0.43144697 -0.2844835 0.17078368 0.18680945 0.104903154 0.100469716 0.6591994 0.6315772 0.54013145 0.05135579 0.102082446 0.07042332 0.015927922 0.069838375 0.031455327 0.20123038 0.040488385 0.19763191 0.45224565 0.33912483 0.053829104 0.26799884 0.4686845 0.32107276 0.09678943 0.45772678 0.4056542 0.31818363 0.14863873 0.1605551 0.43403947 0.41169858 0.29480308 0.5083961 0.30505732 0.33184564 0.3424139 0.316661 0.55537325 0.53977245 0.32753253 0.5501314 0.14918637 0.25960788 0.30548662 0.5352253 0.54170376 0.38724375 0.43885726 0.47947124 0.51670015 0.52203155 0.3061586 0.4726581 0.50217575 0.32140148 0.6277584 0.42151564 0.66010463 0.47893655 0.3976696 0.6804402 0.64512944 0.5451257 0.50864273 0.5202594 0.56695807 0.5296339 0.6636728 0.6597838 0.6165271 0.57747203 0.5190308 0.64773935 0.5392575 0.55686533 0.6303146 0.7537936 0.6433159 0.60493636 0.737038 0.69530916 0.64477044 0.28858626 0.24666782 0.58536863 0.7282101 0.7390664 0.5097164 0.47272867 0.38212183 -0.032719165 0.4826951 0.6978307 0.47769827 0.6280732 0.6528945 0.050253086 0.021030046 0.6577783 0.64788926 0.6254945 0.19455391 0.3717926 0.63396376 0.6098196 0.49061137 0.5647006 0.54655063 0.46145448 0.5786276 0.102901936 0.20656116 0.08339215 0.13389614 0.26639947 0.4940468 0.51159537 0.24812394 0.23259863 0.57691664 0.23882899 0.24167308 0.6796529 0.6713526 0.5764734 0.48766342 0.31226492 0.34341472 0.32379395 -0.08845079 0.089649715 0.32089633 0.2602099 0.27879405 0.67785895 0.22085103 0.1889867 -0.037290066 -0.1271427 0.24778312 0.3687416 0.36847812 0.42555338 -0.25959492 -0.07183151 0.21079087 0.4168771 0.4006021 0.390958 0.3253489 0.26193568 0.48745346 0.41197717 0.43848667 0.06076543 -0.114532284 0.021950975 0.24638635 0.30653852 0.31068748 0.42987543 0.41859138 0.37304744 0.36056742 0.30378798 0.3148597 0.31027028 0.31507385 -0.05301553 0.32888114 0.45490372 0.07824807 0.5240326 0.5615967 0.18763068 0.7015278 0.6604084 0.623854 0.52323675 0.18606833 0.20222804 0.6540729 0.7161628 0.71210957 0.69101167 0.64580286 0.51003885 0.38425124 0.10187753 0.014975287 0.17258972 0.7647619 0.774361 0.6831951 0.6479887 0.56444603 0.42698634 0.26884288 0.15121292 0.089096054 -0.064209715 0.7311635 0.7222655 0.65692556 0.6453808 0.5990055 0.36408576 0.2787221 0.3112359 -0.040956058 0.13130258 0.082715884 0.10730841 -0.2767212 0.10453668 0.09933474 0.0826717 -0.01787351 0.08066351 0.07440637 0.076180086 0.11422098 0.028141491 0.097213075 0.061730135 0.0070908815 0.049253516 0.075812995 0.09444341 0.13076256 0.20022543 0.34219915 0.13814482 0.3963951 0.25310594 0.29788244 -0.015714176 0.47501224 0.48826307 0.25014544 0.3077649 0.3119243 -0.19441271 0.10706253 0.49515876 0.5278989 0.59680593 0.21088457 0.4753301 0.5280433 0.554162 -0.43183985 0.47165412 0.4593464 0.5389656 0.5794585 0.36825782 0.05194404 -0.048890974 0.17611335 -0.17041323 0.29320818 0.35224754 0.392341 0.45110947 0.43507433 0.6212077 0.21318689 0.6832915 0.68711567 0.6889765 0.6293899 0.53856605 0.49995124 0.67937577 0.6207553 0.52905226 0.5931226 0.54378295 0.44443685 0.41968167 0.64872974 0.61945593 0.3800365 0.5802109 0.2648617 0.033221565 0.55920315 0.6926142 0.6852509 0.64317095 0.47886568 0.7036127 0.7148199 0.7040955 0.61206114 0.53033555 0.44695202 0.4440913 0.0031442828 0.4468847 0.7097857 0.47467396 0.526668 -0.02269782