# vtk DataFile Version 2.0
Really cool data
ASCII
DATASET POLYDATA
POINTS 10304 float
-27.91933 2.9145648 18.16754
-27.973438 2.8622732 18.586954
-27.851683 2.874694 19.213255
-27.886862 3.5293202 17.612246
-28.196184 3.49986 18.44769
-28.003668 3.4175568 19.212868
-27.80035 4.5945587 17.110998
-28.104473 4.4940825 17.797886
-28.190992 4.406297 18.477757
-27.932798 4.166724 19.16296
-27.889984 5.2392607 17.097082
-27.98109 5.439258 17.615746
-27.978937 5.418437 18.269054
-27.846909 5.0798106 18.844847
-27.766472 5.9410586 17.61052
-27.786865 5.9155602 18.163815
-26.946383 -2.6804392 16.31457
-26.800493 -2.9808125 17.526701
-26.893654 -2.8139114 18.568098
-26.686012 -2.7865548 18.985022
-26.975506 -2.1722972 15.763375
-27.222584 -2.301117 16.558945
-27.1827 -2.3918676 17.644352
-27.067465 -2.3895981 18.524193
-26.804447 -2.416752 19.146595
-27.080564 -1.5683635 15.763178
-27.344666 -1.6864632 16.400585
-27.366581 -1.692613 17.200647
-27.067717 -1.7681128 18.692335
-26.944338 -1.8553851 19.050884
-26.999336 -0.9644762 15.915593
-27.10695 -0.8209361 16.42798
-26.704222 -0.42372656 17.35834
-26.787718 -1.0807391 18.746286
-26.782145 2.2166364 17.371191
-27.07213 1.9701592 18.868788
-27.005243 2.0367556 19.359806
-27.262522 2.5943942 17.386171
-27.440277 2.4596393 19.375765
-27.121662 2.72264 19.77236
-27.09202 3.7319648 16.824125
-27.586195 3.267876 17.340488
-27.251942 3.6063864 19.835983
-27.278461 4.750213 16.627213
-27.419426 4.581014 19.578964
-27.42316 4.1255207 19.68108
-26.806097 5.32762 16.3449
-27.428326 5.6594934 16.902308
-27.35954 5.44511 19.016302
-27.054243 6.157942 16.933405
-27.494556 6.2151394 17.667505
-27.251743 6.25977 18.312237
-27.101755 6.0801477 18.703524
-26.779158 8.055832 9.932372
-26.859705 8.234944 10.60208
-26.88082 8.449016 9.644319
-27.042244 8.555294 10.478822
-27.029093 8.800454 11.082124
-26.77364 9.542466 8.717084
-27.261389 9.565581 9.799803
-27.405914 9.597839 10.5339155
-27.314577 9.592866 11.265068
-26.921516 9.740383 11.911907
-26.631067 10.035487 25.593548
-26.683006 10.1373005 26.271282
-26.814445 10.355354 8.715876
-27.22098 10.366871 9.8266115
-27.305902 10.494247 10.663094
-27.292046 10.270383 11.2833185
-26.95368 10.26127 11.866499
-26.723516 10.690764 25.018091
-26.906061 10.72325 25.62698
-26.958063 10.78892 26.463459
-26.77448 10.838063 26.950216
-26.711603 11.048201 8.725217
-26.896025 11.07148 9.530475
-27.075922 10.95852 10.551392
-27.000126 10.883466 11.341411
-26.979483 11.458386 25.71232
-27.019644 11.494301 26.434912
-26.771957 11.385255 27.030712
-26.71842 12.200844 25.78606
-26.838564 12.014527 26.337206
-26.721975 11.915804 26.90157
-26.425333 -2.7955337 15.896929
-26.334131 -3.1036482 16.595116
-26.319506 -3.217537 17.304356
-26.236025 -3.2069383 18.49327
-26.195442 -2.9885306 19.154295
-26.281555 -2.1412692 15.234205
-26.471474 -2.463453 15.535139
-26.480236 -2.4770148 19.407217
-26.084742 -2.2974582 19.652887
-26.29547 -1.5965943 15.1306715
-26.470484 -1.8129613 19.507677
-26.142157 -1.7222196 19.650757
-26.10671 -0.5566835 15.033431
-26.499739 -0.74641865 15.457383
-25.693491 0.14718992 14.784422
-26.125605 0.11397155 15.257461
-26.587181 -0.15324304 16.225296
-25.708178 1.2950481 15.342553
-25.93515 1.5278866 16.447956
-26.627914 2.060521 17.54463
-26.575941 1.6444737 18.142311
-26.658678 1.6674935 18.94808
-26.158192 1.9152173 19.849756
-26.44402 2.495317 19.94504
-26.090435 3.6778023 16.0646
-26.475954 3.29952 20.080545
-26.522009 4.601423 16.207865
-26.581205 4.395393 19.803526
-26.703907 5.1564083 16.321775
-26.430399 5.415215 19.402842
-25.760773 7.1447453 6.0075464
-25.756178 7.1349754 6.4860754
-26.193432 6.2116857 16.310575
-26.484102 6.2013373 16.720758
-26.86485 6.27392 18.594471
-26.594236 5.775143 19.168604
-25.699396 7.9011583 4.8976398
-25.901775 7.6255884 5.5535684
-25.994251 7.520826 6.3283396
-25.823961 7.439531 6.9946203
-26.29969 7.6918626 9.561817
-26.349121 7.6229744 10.295209
-26.084082 8.004299 11.248657
-25.888205 6.748267 16.659683
-26.442928 6.7308717 17.555496
-26.422007 6.695673 17.97341
-25.800076 8.39741 4.9258633
-26.018927 8.435529 5.4925942
-26.179203 8.419655 6.162167
-25.901663 8.200318 7.2269626
-26.321035 8.488702 8.617497
-26.35058 8.899295 11.82341
-25.891186 9.15817 25.29689
-25.809034 9.362706 26.26641
-25.730156 8.893125 4.876796
-25.896154 8.987456 5.2316065
-26.278204 9.524348 7.8252034
-26.494581 9.91264 12.151937
-25.830492 9.948489 24.076357
-26.2371 9.785728 24.867002
-26.287128 9.603447 25.575762
-26.185493 9.664642 26.305119
-26.19419 10.125791 26.952684
-26.453434 10.377217 12.081464
-25.707771 11.167399 21.180851
-25.95882 10.544472 24.029612
-26.432266 10.429562 24.767878
-26.257204 10.575012 27.216908
-25.90318 10.9134 27.58986
-26.178085 11.387676 8.008272
-26.472406 11.561342 8.608969
-26.507483 11.614052 9.817022
-26.593237 11.589308 10.400281
-26.520618 11.171837 11.543516
-26.362774 10.896714 11.865647
-25.869957 11.709597 20.896236
-26.141224 11.723677 21.397764
-26.13502 11.650414 22.721632
-25.798586 11.224488 23.530378
-26.569939 11.481822 25.046001
-26.398472 11.44953 27.351618
-26.001617 11.357594 27.63178
-25.622093 12.65307 7.9434643
-25.954659 12.261113 8.2326355
-26.15541 12.218082 9.412916
-25.916342 12.125217 10.4286995
-25.897623 12.517549 20.797823
-26.25501 12.581701 21.561369
-26.25169 12.443566 22.345728
-26.123257 12.240995 23.019129
-26.535769 12.4204855 25.76661
-26.557573 12.350968 26.5943
-26.224607 12.088306 27.23845
-25.735964 13.403387 20.799692
-26.037113 13.215233 21.444868
-25.98296 13.681818 22.663973
-25.778471 13.219437 23.668959
-25.788965 13.051996 24.574442
-26.117054 13.071598 25.727108
-26.071606 13.022307 26.56541
-25.884268 12.959726 26.936607
-25.81756 14.071129 21.57522
-25.665327 14.68396 22.461082
-25.635319 14.225313 23.117373
-25.661362 14.006703 25.505594
-25.46023 -2.841053 15.587466
-25.307463 -3.3469527 16.790648
-25.418785 -3.4030006 17.386166
-25.50642 -3.377286 18.461376
-25.541267 -3.0368588 19.20427
-25.311249 -2.2813437 15.058088
-25.244495 -2.6243968 19.573982
-25.52435 -2.404924 19.681005
-25.418552 -1.1374665 14.638121
-25.500223 -1.7236522 19.753637
-24.926521 -0.6335231 14.242031
-25.548172 -0.24631943 14.539442
-25.15584 -0.96684164 19.460455
-25.37532 0.36291236 18.726969
-24.89614 1.6695968 14.231316
-25.247768 1.3933284 14.621691
-25.330132 1.6346759 19.840807
-24.667185 2.6014028 14.100661
-24.558582 2.8243704 14.273461
-25.140306 3.6639223 20.092442
-24.83036 4.522005 15.139491
-25.253277 4.523533 15.700429
-25.704199 4.758483 19.808783
-25.316212 5.407489 19.341955
-25.270287 4.915579 19.691689
-25.366081 7.2954865 5.1226416
-25.31103 6.949054 5.6400847
-25.42118 6.8264737 6.281384
-25.335892 6.8954754 6.9980063
-25.11132 7.255921 10.45333
-25.361683 6.319251 16.046072
-25.257648 6.1579103 18.906078
-24.897501 7.790433 4.284381
-25.267944 7.650128 4.685886
-25.59473 7.3659716 7.2070627
-25.703337 7.8421583 8.782323
-25.417805 6.756454 16.387697
-25.53751 7.046599 17.76133
-25.257969 6.8901916 18.121267
-25.105247 8.533104 4.288492
-25.412174 8.492133 4.550182
-25.48142 9.082847 24.883081
-25.380339 8.946119 25.441496
-25.49217 9.16154 26.082361
-25.38327 9.121776 4.6753325
-25.682745 9.423811 12.187512
-25.487448 9.8656645 23.943943
-25.709608 9.459323 26.568453
-25.358208 9.876172 27.133219
-25.421654 10.002766 5.8371673
-25.480032 10.541425 12.149035
-25.360905 10.910646 20.860836
-25.475338 10.688813 21.630802
-25.649471 10.322608 27.434614
-25.227715 10.682105 27.740398
-24.768772 11.684516 5.133026
-25.262388 11.9532175 6.2297215
-25.250404 11.265871 12.03823
-25.005548 11.689568 20.141861
-25.205997 11.509074 20.441874
-25.805067 11.687314 27.534407
-25.26109 11.4653635 27.889547
-24.767424 12.684133 5.038757
-25.055458 12.545773 5.5971475
-25.27845 12.1968155 6.268469
-25.459654 12.851851 7.352361
-25.646461 12.421337 9.996436
-25.26124 11.939194 11.645104
-25.3362 11.910861 11.71701
-25.222486 12.282861 20.07037
-25.5319 12.335206 27.341429
-25.200726 12.196646 27.80152
-24.933191 13.066556 5.507081
-25.11959 13.279425 6.643741
-25.292833 13.394086 7.685114
-25.094145 13.541157 8.410175
-25.240187 13.074894 9.1456
-25.216282 12.788311 10.374849
-25.124182 13.452225 20.118425
-25.443388 13.565067 20.567144
-25.4862 13.368572 27.088839
-24.997805 13.319846 27.629803
-24.875181 13.816862 6.8049254
-24.97029 13.834124 7.522526
-24.810513 13.999274 8.1959
-24.819891 14.111258 19.866518
-25.244106 14.514163 20.650383
-25.210781 14.700423 25.449581
-25.233488 14.277572 26.352697
-25.075855 14.022793 27.019472
-24.923437 15.407874 19.99332
-25.08014 15.513563 20.426802
-25.356304 15.463507 21.527378
-25.375668 15.38271 22.63396
-25.310146 15.088535 23.578568
-25.352861 14.934681 24.424051
-24.957571 14.967167 25.54155
-24.730568 16.788061 19.798037
-24.998333 16.232016 20.378693
-25.05744 16.17623 21.249489
-25.04723 15.98251 21.964115
-24.706627 15.810942 24.74178
-24.676388 15.719216 25.170689
-24.503927 17.092838 16.890247
-24.661009 17.074554 20.624725
-24.54098 -2.972139 15.641807
-24.857815 -3.2870343 16.575512
-24.655844 -3.270579 17.552408
-24.733248 -3.205097 18.481651
-24.689203 -2.84345 19.180693
-24.311485 -2.3225336 14.856221
-24.467989 -2.3351817 19.478092
-24.799133 -2.3165917 19.634361
-24.279222 -1.5430075 14.456417
-24.85674 -1.6520396 19.700432
-24.469831 -0.350196 13.999191
-24.564972 -0.956166 19.34969
-24.573618 0.14199562 13.911797
-24.253595 1.7602141 13.594409
-24.353191 2.0016346 19.849169
-24.245613 2.630895 13.427777
-24.619978 2.811781 19.964188
-24.19553 3.2983887 13.758318
-24.654009 3.4342966 20.008661
-23.69799 5.22456 9.699633
-24.443466 3.865502 14.382659
-24.727737 4.101969 19.888353
-23.96873 6.431858 5.7940073
-24.461277 6.3793025 6.473048
-23.87461 6.363065 7.5990357
-23.700594 6.0147433 8.105811
-23.70232 5.4145513 9.380586
-23.685532 5.615025 10.231327
-23.941154 5.230597 14.808116
-24.571062 5.556167 19.237768
-24.564507 7.053451 4.8038383
-24.47718 6.589252 5.5511875
[...]
POINT_DATA 10304
SCALARS features_00 float 1
LOOKUP_TABLE default
0.709966 0.74733996 0.76181245 0.6899533 0.8041256 0.8037107 0.70210826 0.795704 0.8297789 0.81354403 0.7432951 0.7995363 0.80848837 0.79106265 0.7965697 0.79798615 0.7883989 0.8324536 0.8164347 0.82172847 0.72872484 0.79285175 0.8139864 0.7958908 0.81273264 0.6642179 0.7332189 0.77869457 0.7624639 0.777213 0.5859032 0.5960842 0.584178 0.7272308 0.49586165 0.6796234 0.6780486 0.5599587 0.71352303 0.70114243 0.5269587 0.6065477 0.74397326 0.6048298 0.7461337 0.7597668 0.5651873 0.7168186 0.7448661 0.7233961 0.7899518 0.76451457 0.730296 0.51729876 0.6112361 0.50863236 0.63833475 0.7274028 0.45480132 0.6179404 0.72107434 0.768336 0.7021238 0.78680646 0.83708966 0.43730956 0.57668555 0.67056036 0.72114074 0.67671406 0.67232174 0.7989876 0.8363545 0.78468955 0.3997687 0.47450417 0.6037494 0.6431267 0.7400951 0.74469495 0.71437806 0.5847379 0.64885056 0.64817995 0.7465351 0.7758379 0.81585985 0.85580647 0.8392024 0.6603925 0.7162603 0.822703 0.82111657 0.5964434 0.78967017 0.78200054 0.44985458 0.5034213 0.3544941 0.33948332 0.40729976 0.17109391 0.019111983 0.5093212 0.5834017 0.6442015 0.5818354 0.6412427 0.27319393 0.6741777 0.44662827 0.6471101 0.53161526 0.61137366 0.5857525 0.5265095 0.5902001 0.6748261 0.71577454 0.64349437 0.6147852 0.61898303 0.54273206 0.4339829 0.4063549 0.5026006 0.55164844 0.677736 0.76195955 0.74571764 0.6021563 0.6002759 0.5443733 0.3545608 0.33704382 0.64494205 0.7630013 0.7644448 0.56616855 0.5578041 0.32181126 0.61083823 0.6165927 0.70711833 0.77778304 0.7958876 0.77808523 0.6001328 0.53033924 0.5251851 0.6391545 0.7493885 0.6775632 0.28597325 0.3540796 0.4355929 0.49816528 0.5749279 0.5776317 0.49146342 0.5112749 0.41836196 0.41512424 0.5916843 0.67049664 0.64562345 0.33660132 0.31548905 0.35580462 0.42157012 0.42418414 0.4493459 0.41715682 0.35997787 0.52569115 0.5832615 0.5948894 0.3208146 0.3785036 0.29868817 0.24317083 0.2518835 0.38881862 0.4582622 0.47376812 0.29132545 0.25104842 0.2447876 0.29148668 0.6785799 0.71852624 0.77370846 0.8652268 0.8482797 0.6123393 0.8202153 0.8175248 0.50063354 0.76059324 0.4540515 0.40712187 0.6344328 0.34631717 0.307828 0.26154733 0.4239033 0.20537981 0.15462305 0.4471886 0.007337332 0.167564 0.5011302 0.46082228 0.43875015 0.6224308 0.60126746 0.5411047 0.42526558 0.3558954 0.4529403 0.5198288 0.58845633 0.6102654 0.38481516 0.2424266 0.60359436 0.70410657 0.6136261 0.5666996 0.5830109 0.7446086 0.74885917 0.7438309 0.531531 0.46924585 0.61679816 0.74787164 0.6979225 0.3134909 0.48337767 0.5279124 0.52648187 0.70061576 0.64650404 0.32789835 0.34619102 0.43215388 0.41109496 0.4736287 0.60471976 0.5930178 0.45820472 0.44831216 0.383528 0.3731966 0.36548248 0.4087494 0.41670087 0.3496623 0.5261657 0.51963687 0.4922591 0.46337026 0.417005 0.4171546 0.36379683 0.36134714 0.22089434 0.26932198 0.41467664 0.43264657 0.48849338 0.46828505 0.46117097 0.14136231 0.20922889 0.2958895 0.3157869 0.3569705 0.17725638 0.21047825 0.24993327 0.23486203 0.25242037 0.26703346 0.30775487 0.18904833 0.22787957 0.2533785 0.24714576 0.30171034 0.31119153 0.44792587 0.22609566 0.63985175 0.6747384 0.69650435 0.7810875 0.79287803 0.5727636 0.7540281 0.7782794 0.51882565 0.72256035 0.43354487 0.58977854 0.41204435 0.40201187 0.36171454 0.3012957 0.39632732 0.11439948 0.37161797 0.32418233 -0.03507656 0.3718502 0.43913156 0.4273586 0.26018405 0.25096405 0.33004045 0.18406764 -0.07032813 0.38672745 0.578671 0.5334407 0.10707548 0.492754 0.56500566 0.58723176 0.25681224 0.035120577 0.5365205 0.5386507 0.26308855 0.6595418 0.69593817 0.6720766 0.48669273 0.21778424 0.00473848 0.41482818 0.44350255 0.3254685 0.5187346 0.6088103 0.61484057 0.5895591 0.36009613 0.32882544 0.41321838 0.5903814 0.25533178 0.55785567 0.42748722 0.4441985 0.28690636 0.07633018 0.18456434 0.49664462 0.4867706 0.5097089 0.3454556 0.33138296 0.048462085 0.452887 0.48939213 0.48028272 0.48227823 0.47316766 0.3993275 0.089319095 0.42546725 0.48322693 0.47688514 0.40842658 0.09696708 0.14345048 0.31700325 0.3421527 0.48820326 0.5233023 0.5609925 0.47353926 0.27513948 0.14626041 0.25201774 0.29240033 0.3013784 0.57901645 0.57678926 0.5186969 0.3911275 0.28912297 0.16503389 0.23460132 0.26917 0.24712099 0.5496775 0.4795972 0.39175576 0.25472468 0.23983634 0.30121523 0.34604123 0.38798097 0.34657085 0.34593064 0.39411122 0.587527 0.5806581 0.580544 0.58191144 0.6741643 0.5673609 0.5737256 0.71249133 0.48652834 0.65410686 0.4352676 0.52436703 0.41493526 0.41527814 0.1795291 0.43638915 0.22533074 0.31577027 0.29484063 0.37445801 0.35738525 0.30680302 0.19398677 0.26467165 0.30041957 0.2891811 0.34918773 0.28631634 0.2554394 0.2805113 -0.018942907 -0.1373629 0.4549032 -0.058423124 -0.17007741 -0.2520081 0.35368347 0.48235238 -0.020404369 -0.17530778 -0.087433234 0.5978454 0.6061764 -0.14096686 0.26395908 0.35198545 0.37008002 0.21075056 0.5240951 0.53653604 0.5269693 -0.0500485 0.18645075 0.2574745 0.3396923 0.42453003 0.32924497 0.15209311 0.5220117 0.28412452 0.020812958 -0.09136674 0.1318585 0.22330087 0.47140145 0.10781972 0.07519433 -0.021405142 0.43129426 0.4822467 0.34253442 0.18435523 0.11757738 -0.09582632 0.4747693 0.42416826 0.43520045 0.4208423 0.42689162 0.41945267 0.27812746 -0.09048098 0.5226525 0.4986439 0.42155832 0.42537326 0.48333576 0.5186139 0.549199 0.42000037 0.300155 0.54326946 0.25641412 0.23664778 0.5098365 0.51012444 0.32300588 0.43173522 0.41058883 0.3818762 0.3454976 0.36422265 0.35736048 0.39260352 0.4556551 0.46318653 0.4553068 0.39255756 0.44151503 0.49481505 0.49767324 0.4955459 0.50987524 0.52990735 0.5439087 0.52892935 0.4756188 0.46266675 0.53498954 0.48446986 0.50969255 0.46351337 0.44368875 0.4083022 -0.026842326 0.3767075 0.38615465 0.39140528 0.2359987 0.28873888 0.33898008 0.379336 0.25259236 0.28728396 0.14064296 0.27528736 0.30602974 0.3677039 0.2567207 0.40032864 -0.35077655 0.15365325 -0.28610992 -0.3425203 0.24611637 0.263835 -0.25875354 0.031817526 0.2494345 0.3385366 0.23375618 0.26728845 0.33399397 0.45191294 0.054769047 0.15741295 0.06644629 0.13001205 0.4403071 0.45640397 0.3885229 0.05040492 0.005495131 0.34017462 0.256739 -0.015169114 -0.07702188 -0.05399255 0.4291503 0.47510558 0.55343974 0.54938996 0.17735012 0.24395254 0.3431825 0.37451726 -0.1369481 -0.24139984 0.09372272 0.524946 0.5047191 0.6276305 0.2988781 0.13288628 0.33509138 0.52763987 0.54330873 0.12726115 0.06695461 0.28641942 0.41122904 0.4923889 0.45148048 0.3361603 0.32380262 0.34486178 0.49902463 0.47706848 0.39576006 0.4788844 0.56416935 0.53851926 0.5180009 0.5531955 0.59423685 0.5672685 0.45774442 0.43585712 0.4192636 0.44390798 0.3945911 0.40031677 0.4206539 0.26712483 -0.014477313 0.11537394 0.33680606 0.35547525 0.23432699 -0.09257807 0.19699848 0.23105703 0.27188098 0.16524805 0.12306291 0.11913394 0.2079077 0.72077906 0.71485865 0.25829512 0.10019201 0.18550134 0.6946719 0.71126753 0.71127 0.6711333 0.6451376 0.61420053 0.58154213 0.5938076 0.47845918 0.04351099 -0.016565308 -0.0017665625 0.38285342 0.54912674 0.46444154 0.19046439 0.11380461 0.07690225 0.21983132 0.22814895 0.34181488 0.50588024 0.45931172 0.22979978 -0.06857967 0.44855252 0.4626233 0.638454 0.55780995 0.22983554 0.24822037 0.075375766 -0.2744211 0.5170853 0.7475346 0.71007794 0.68537486 0.633275 0.22269227 0.110313974 0.20689863 0.24375749 0.10584476 -0.09536886 0.42883438 0.4970903 0.5254894 0.75366354 0.7231834 0.6258298 0.29190695 0.3094797 0.28584152 0.1297331 -0.008344501 0.07181047 0.7230047 0.37649053 0.29176128 0.35275877 0.21428512 0.39717364 0.04859648 0.20655161 0.49436083 0.23576497 0.3127817 0.5222813 0.51096475 0.3393465 0.4552065 0.55507576 0.57678735 0.5428842 0.23054232 0.31753623 0.053103387 0.33123437 0.28047633 0.112894826 0.22830346 0.25649297 0.22149438 0.3445167 -0.1384494 0.30920458 0.25474206 -0.28060502 0.86855376 0.85220623 0.82255495 0.24731219 0.08454205 0.86645687 0.85553217 0.8304396 0.058516327 -0.07098501 0.13629438 0.7130939 0.7162163 0.69326043 0.66188323 -0.044923354 0.6932745 0.717208 0.59451234 0.010594703 -0.0043896064 0.6151582 -0.032395817 0.4753126 0.50531894 0.48936534 0.57972276 -0.15288958 0.33018234 0.46358675 0.42650896 0.44077343 0.52165294 0.16906731 0.28639504 0.29278466 0.40325022 0.039294273 -0.23526263 -0.25536844 0.46219087 0.6675689 0.6035336 -0.08034967 0.21782318 0.11108944 0.4820198 0.73573434 0.14515574 0.094938 0.27868766 0.2526003 0.3029937 0.4663877 0.47257823 0.77125365 0.78129876 0.5069866 0.3737808 0.11796703 0.34794396 0.31034687 0.7737663 0.7405437 0.6246468 0.40196556 0.3833811 0.37971365 0.3915501 0.24997227 0.16672722 -0.06505978 0.0049930215 0.3275092 0.27050638 0.20310876 -0.04887619 -0.10430103 -0.13435376 -0.017466113 0.06590345 0.40436837 0.09803206 0.11983558 0.26231235 0.49514627 0.30014783 0.36203223 0.4674397 0.5349278 0.4610533 0.5016711 0.4983022 0.526523 -0.039352506 0.24178547 0.28222007 0.34727585 -0.098335095 0.3151807 0.40463284 0.33946663 0.27913606 0.38822177 0.29283315 0.24734855 0.44569412 0.86782384 0.83299 0.74054694 -0.097300455 0.10252817 0.29511744 0.86796653 0.8732667 0.838792 0.78354764 0.74230015 -0.09685128 0.8605648 0.86216235 0.84244704 0.8096818 0.7605971 0.6574342 0.67699766 -0.04954999 -0.06786757 0.8402147 0.8347763 0.8193811 0.7834625 0.70759165 0.6964979 0.6497121 -0.14807737 -0.048310075 -0.20976521 0.80392444 0.6674471 0.08570865 0.5426182 0.5984488 0.6212308 0.054572836 0.16931678 0.52470875 0.5251225 0.52155244 0.51658475 0.4971606 0.5307486 0.22628616 0.35981756 0.4738766 0.47478834 0.48769814 -0.22156842 0.40577137 0.38436627 0.34240246 0.395538 0.4107889 0.5234249 0.45855963 0.6229973 -0.17892611 -0.18781923 0.09356508 0.4533463 0.4664455 0.70073485 0.041615054 -0.1545053 0.26127917 0.20742352 0.40917167 0.4408493 0.4450737 0.45710245 0.7347394 0.73370624 0.26163054 0.17232515 0.3649644 0.32569024 0.7442038 0.70602757 0.6043962 0.43855062 0.3723817 0.14223984 0.28124398 0.11053151 0.03586425 0.17544727 0.122061655 0.071781866 0.03901896 0.19579992 0.18844289 0.48088664 0.22166297 0.2631662 0.28084382 0.41798458 0.4650303 0.18543373 0.25793624 0.38707855 0.32619667 0.42633528 0.43905234 0.49125436 0.4193293 0.456752 0.5034236 0.5564989 0.53929025 0.46231353 0.5141811 0.5817846 0.5819404 0.5557337 0.5104948 0.391666 0.22047846 0.029473245 0.3689465 0.48115468 0.5376247 0.43423998 0.37074184 0.35499403 0.44191098 0.54249257 0.60747826 0.4659533 0.38333258 0.5664082 0.64454293 0.6850162 0.4071387 0.45529547 0.6762784 0.7316184 0.8280791 0.7355083 0.6942105 0.26668802 0.1690116 0.4716601 0.6009412 0.619905 0.8411894 0.67578787 0.37082788 -0.3082318 0.2840357 0.8450409 0.7198874 0.68710494 0.07942538 0.35017112 -0.36109403 0.04124311 0.7644961 0.79139024 0.8016248 0.7720258 0.7238673 0.6735014 0.64094347 0.5906571 0.45820695 -0.12966087 0.20325953 0.27838698 0.75271773 0.7624493 0.7679035 0.7585975 0.73665905 0.61915815 0.19786711 0.22917007 0.5559494 0.547058 0.53214395 0.58282876 0.21900284 0.5768162 0.55960816 0.5387986 0.52881575 0.51484346 0.49491024 0.51660275 0.49386835 0.45390576 0.4771602 0.37417674 0.4025996 0.43367612 0.3748807 0.44376203 0.45244557 0.51673436 0.44661102 0.45608157 0.63420415 -0.110209465 -0.17929491 -0.22648777 0.37874383 0.4472745 0.44178283 0.6722833 0.6500985 0.018571258 -0.15537557 0.661134 0.6089356 0.54013187 0.21404074 0.3244471 0.13085565 0.112148225 -0.20348147 0.18268722 0.16619425 0.19074179 0.032763965 -0.07005066 0.29547122 0.2378249 0.2273775 0.27994278 0.0182527 0.1792812 0.26267076 0.29778743 0.3471257 0.4173992 0.4667812 0.42924365 0.492655 0.5878941 0.6034454 0.5689911 0.70791733 0.7858442 0.8326235 0.49150938 0.5697678 0.6082126 0.6022664 0.6352726 0.63070965 0.67004025 0.65852976 0.62579715 0.59383166 0.6731063 0.6854396 0.6521575 0.56536865 0.6364336 0.608446 0.57026565 0.6236228 0.6638886 0.6541866 0.5979352 0.6261944 0.5537934 0.51144713 0.41512328 0.2320976 0.12826069 0.13532658 0.29718864 0.36189336 0.43514773 0.5451061 0.61534595 0.6471877 0.5881084 0.60114074 0.63193905 0.47472313 0.6841748 0.6071366 0.5985475 0.6509166 0.53082925 0.69747007 0.6653924 0.506176 0.5175471 0.49919766 0.72135115 0.69544303 0.55549324 0.5737293 0.36806133 0.6431591 0.58013535 0.6308111 0.5778248 0.36542028 0.41630632 0.45120376 0.43494976 0.34359723 0.3242907 0.5138929 0.564291 0.63608754 0.33296245 0.29963222 0.34583166 0.1489389 0.6045259 0.67732596 0.57567066 0.49281013 0.45131 0.32024306 0.2828312 0.707258 0.6426385 0.70898044 0.7201632 0.71674263 0.5959144 0.37513247 0.38365984 0.5347682 0.5509386 0.3242622 0.6049757 0.59398705 0.58163214 0.5489789 0.48708344 0.40364474 0.58793664 0.5528048 0.41898844 0.5542089 0.44635862 0.29804635 0.40527174 0.41535777 0.41347462 0.35438466 0.44991034 0.43877727 0.49725217 0.4728829 0.45830166 0.4544257 0.4485238 0.5465281 0.4077606 0.10236227 -0.06700505 -0.08987509 0.34506258 0.40618938 -0.0020462275 -0.064117715 0.3172792 0.06840097 0.00698891 0.29892442 0.2834128 0.24789655 -0.112098776 -0.11385377 0.4549401 0.47557035 0.276909 0.27290568 -0.08787362 -0.10695186 0.52753854 0.6487247 0.28223118 0.26132944 0.21388166 0.5064397 0.74055886 0.7384946 0.82704794 0.3327117 0.4129504 0.48304355 0.36276203 0.4901056 0.55630577 0.8622602 0.8930477 0.404451 0.5099157 0.57984155 0.59409124 0.4134171 0.45873868 0.6304691 0.7626357 0.84868693 0.8794752 0.67420435 0.7678405 0.8229151 0.6014268 0.62379146 0.60976684 0.5590059 0.6041736 0.6356696 0.5697061 0.62051904 0.6401005 0.46903628 0.24738702 0.27930868 0.2769231 0.67445236 0.65261763 0.63094974 0.5656749 0.5701726 0.24054241 0.2766147 0.2832566 0.71703255 0.69230247 0.54139805 0.3300178 0.23834221 0.17122303 0.26483202 0.3277115 0.46820143 0.5853312 0.63685316 0.6686783 0.5014982 0.53191334 0.5325328 0.23650983 0.27090847 0.7358873 0.6867595 0.44656566 0.41768754 0.085093945 0.22184017 0.68609846 0.6896969 0.686388 -0.005863145 0.47496283 0.473266 0.40717047 0.61531067 0.6218504 0.59532005 0.512581 0.58029014 0.6404449 0.508817 0.3398512 0.22004989 0.2594864 0.59409803 0.36508214 0.40965328 0.42784095 0.36302128 -0.03299798 0.49506444 0.58882487 0.60102665 0.5495393 0.3236447 0.5695808 0.30196607 0.33270055 -0.4314174 -0.41458327 -0.34660015 0.6122987 0.6215418 0.580014 0.6038214 0.5763622 0.54046917 0.47724953 0.2395233 0.12352902 0.5692661 0.53816843 0.45110613 0.3297577 0.57549256 0.5653833 0.57914364 0.5880703 0.38903248 0.6124455 0.5243454 0.5451908 0.15907988 0.64852166 0.48490864 0.47727603 -0.014559209 0.34239882 0.3928846 0.45001024 0.5391473 0.71360385 0.44409007 0.31311032 0.3408147 0.38942182 0.62929916 0.34785077 0.41679144 0.2810085 0.24869466 0.45172548 0.4421829 0.449902 0.24183106 0.4547665 0.28369233 0.20079243 0.46339786 0.21814638 0.317617 0.22423911 0.13401797 0.040989727 -0.061260134 0.33951363 -0.034302734 -0.15385857 0.26596284 0.020655857 0.20979744 0.17629158 -0.08043961 0.23262018 -0.24669836 -0.22651017 0.44809446 0.47659358 0.28497553 0.28353223 -0.2233027 -0.15767288 -0.09661114 0.6047103 0.65629494 0.28813347 0.2619817 0.20447889 -0.107806064 0.8444954 0.18273371 0.27467784 0.22336698 0.22915468 0.3430614 0.91411823 0.20032611 0.29223543 0.37892348 0.52028364 0.5168536 0.31783402 0.35454136 0.5093422 0.8574349 0.8879889 0.40386868 0.6304747 0.75363684 0.83622706 0.8605377 0.46856502 0.5369556 0.5655885 0.57928425 0.21995379 0.25936434 0.5373963 0.5564703 0.28139204 0.27310485 0.268903 0.56748843 0.270273 0.22453922 0.36555478 0.36678934 0.7379508 0.7136166 0.6724758 0.5845499 0.4973357 0.50940084 0.2768696 0.20146157 0.4924041 0.51637876 0.5466208 0.46259654 0.7860708 0.7685914 0.34722826 0.21765102 0.16721404 0.20389752 0.31150803 0.36253 0.5296706 0.6039066 0.41473672 0.43582314 0.2406373 0.44355452 0.53502077 0.63617754 0.6204691 0.6177337 0.7699616 0.1453149 0.21055657 0.3388015 0.6126542 0.67837715 0.38387215 0.39311558 0.5540644 0.591076 0.63122225 0.61256766 0.7346362 0.024345174 0.34998384 0.5818948 0.585801 0.59393406 0.612036 0.52983415 0.18138668 0.19772041 -0.035353832 0.43411857 0.37275657 0.4078939 0.33857992 0.33540177 0.28756955 0.37863743 -0.28943577 -0.04944679 0.5101627 0.54504585 0.45621073 0.49739227 0.57394195 0.45452493 0.14982656 -0.068507016 0.54504925 0.5021401 0.1257566 0.34439683 0.39847967 0.57129294 0.5253809 0.08870828 0.0062514916 0.44270128 0.39280042 0.22080109 0.21798323 0.18016148 0.351912 0.52077067 0.5372958 0.49625188 0.20470388 0.2490755 0.47065032 0.45853347 -0.2551982 -0.13809037 0.55335367 0.6500664 0.41065103 0.39247614 -0.22266614 0.34197915 0.38605303 0.43879008 0.6322972 0.6631496 0.3824404 0.35572433 0.2978669 0.5728513 0.34298953 0.3005464 0.21615188 0.21208303 0.17860712 0.124709755 0.1599851 0.07656579 0.24656558 0.117711194 0.058100466 0.2921251 0.11732145 0.035084426 0.1773393 0.223442 0.04743176 -0.05980403 -0.01830614 0.10159516 0.18312755 0.078707576 0.17768614 0.29420194 0.44390205 0.26851577 0.52225953 0.64651537 0.28633213 0.7856159 0.18851434 0.14228535 0.107322246 0.06880561 0.91185635 0.117379695 0.18099669 0.1816756 0.11275989 0.87031937 0.2223361 0.24781372 0.40317628 0.572201 0.77253926 0.8228577 0.84711033 0.56325495 0.5742341 0.5511872 0.50504684 0.5205333 0.51441395 0.42106944 0.5138956 0.45324254 0.4034741 0.57398033 0.6525895 0.69410986 0.3944915 0.45541948 0.48171246 0.33086726 0.22426179 0.18682283 0.38602966 0.57497287 0.65506613 0.67680585 0.48757875 0.4217684 0.16146882 0.16924535 0.4498845 0.5815179 0.65460324 0.4906888 0.119427815 -0.00066907704 0.14570843 0.2786758 0.33395648 0.45294803 0.7674607 0.43076044 0.18044668 0.5086752 0.8036942 0.8042597 0.80270946 0.56802154 0.35337844 0.32823825 0.5474942 0.7633891 0.7775655 0.26739234 0.15944995 0.092405654 0.0869638 0.15225972 0.28269854 0.31704128 0.45552236 0.30226162 0.20260401 -0.00051663374 0.44500643 0.5880984 0.5867281 0.70933235 0.031351183 0.082699664 0.44164744 0.07033322 -0.10653965 0.4894043 0.54221976 0.5664627 0.6888326 0.29032397 0.18120356 0.22021005 0.028847113 0.07685608 0.13648616 0.21662405 0.3656085 0.4038825 0.33799613 0.16236976 -0.19379899 -0.10094791 0.49797705 0.43398994 0.423266 0.38728777 0.32988805 0.44018075 -0.2093572 -0.21302311 0.61563206 0.5243342 0.5163337 0.52163255 0.39655066 0.3559655 -0.17992029 0.7251016 0.71855104 0.66052127 0.6283523 0.47741973 0.33786336 -0.16407704 0.7137442 0.20983307 0.25857162 0.3082291 0.2608003 0.015754126 -0.20660631 0.16514985 0.2306082 0.26250958 0.3632617 0.2463598 0.67614454 0.21927312 0.25008786 0.3220212 0.31497306 0.37945074 0.0016792268 -0.2919762 0.738011 0.7126017 0.27545717 0.31640485 0.32687092 -0.08830798 0.8552933 0.8451371 0.7730582 0.76403844 0.7150396 0.2143523 0.7664225 0.16996612 0.06001833 0.4823703 0.57818955 0.5882002 0.038879953 0.276385 0.4346362 -0.3012787 0.028840236 0.081043705 -0.092053965 0.1235511 0.2109006 0.21413101 0.16209096 0.15039031 -0.53677773 0.14624727 0.089984536 0.0008597523 0.049719058 0.015297022 -0.07248928 0.04287707 -0.2506903 0.17682222 0.20599091 0.03781312 0.17350714 0.34101862 0.25600106 0.43844336 0.19859575 0.17337185 0.7194882 0.18856864 0.14150596 -0.0063926834 0.8326467 -0.03703176 0.018592065 0.045304634 0.07880967 -0.022102013 -0.12771235 0.7718322 0.81139123 0.068034105 0.2228577 0.15692353 0.16089508 0.30385077 0.43906048 0.7736652 0.78018606 0.35443172 0.37098122 0.35519177 0.47588557 0.5184978 0.54644394 0.5179043 0.6374029 0.6718939 0.4681129 0.53278327 0.5440091 0.38814864 0.4107933 0.6608952 0.69002295 0.4076057 0.23730502 0.32068047 0.3750427 0.41453353 0.5057093 0.62575376 0.6591814 0.6683614 0.69027317 0.4228515 0.08158792 0.19550337 0.3153811 0.5726738 0.6756362 0.6983571 0.27246493 0.28390986 0.27206266 -0.17218715 0.1645289 0.6944738 0.67117536 0.43763256 -0.23036318 -0.05966858 0.03179127 0.6536711 0.6500147 0.32571527 -0.085823536 0.5875773 0.24475318 0.31307757 0.41471198 0.7598693 0.1751644 0.1371788 0.46646318 0.71597916 0.692121 0.40637782 0.32343686 0.23701864 0.24020569 0.09255953 -0.1405308 0.29927573 0.5274856 0.5573287 0.285