# vtk DataFile Version 2.0
Really cool data
ASCII
DATASET POLYDATA
POINTS 567 float
-6.6368895 -8.170414 23.146341
-6.647507 -7.536118 23.288813
-6.650503 -6.9066386 22.933962
-6.564704 -5.9682865 23.462145
-5.710776 -10.541265 24.575352
-5.692942 -10.235906 25.516094
-6.0237904 -9.286927 23.021961
-5.788622 -9.391291 25.185131
-6.3947005 -8.043491 22.469484
-5.8291693 -8.567027 25.09599
-6.2304435 -7.6738024 22.060068
-6.002027 -6.3827996 21.826946
-6.4374146 -6.435776 22.395647
-6.3986344 -6.3371015 23.981012
-6.1944127 -5.956689 22.030922
-6.3309097 -5.6034164 22.662804
-6.4598722 -5.281854 23.444345
-6.232215 -5.20422 24.22323
-5.7463436 -5.135156 24.734663
-5.8910713 -5.00144 22.213505
-5.9542685 -4.7226253 22.624763
-6.1518245 -4.589942 23.39731
-5.958761 -4.6236773 24.251772
-5.777932 -4.2373075 23.004528
-5.8192368 -4.1664433 23.479673
-5.695817 -4.0806675 24.17757
-5.464897 -10.88816 24.502937
-4.864951 -11.615882 25.936674
-4.875681 -11.644452 26.598122
-4.769333 -11.184575 27.731127
-4.6236105 -11.196884 28.109818
-5.416924 -9.892688 22.427551
-5.23121 -9.990546 26.66146
-4.983302 -10.87956 27.447695
-5.1114554 -9.715031 22.053186
-5.1147137 -9.963024 27.134499
-5.663677 -8.661036 21.849756
-5.079023 -8.681697 26.7444
-4.7222257 -8.425794 27.602499
-4.9966216 -7.300543 21.076982
-5.1666675 -6.6526127 21.075047
-4.850478 -6.9552383 25.754147
-5.257199 -5.620723 21.381624
-5.6571617 -6.032617 21.511105
-5.212796 -4.963834 21.766733
-5.5694313 -4.513301 22.394983
-5.5581427 -4.3193645 24.585918
-5.483849 -4.4167447 24.72001
-5.254539 -3.9491067 22.938251
-5.6215215 -3.9883103 23.597713
-5.3573093 -3.9710832 24.278408
-4.0243196 -11.764964 24.667057
-4.427471 -11.894691 25.79666
-4.280534 -12.133604 26.531754
-4.12728 -12.133828 27.357714
-4.0493245 -11.960728 28.109295
-4.689328 -10.897289 23.196844
-4.33369 -11.094002 23.270552
-4.3836627 -11.525991 28.171053
-4.015572 -11.013762 28.81979
-4.274908 -9.819318 21.696943
-4.2646046 -10.018276 28.746302
-4.485621 -9.823594 28.499088
-4.2331276 -9.294837 28.847729
-4.4753695 -8.987317 28.499712
-3.7996016 -8.591259 29.189373
-4.082717 -7.122839 20.632889
-4.664335 -7.3362207 26.049393
-3.8904798 -7.8384123 28.49351
-4.244806 -6.583255 20.64493
-4.67492 -4.841749 21.928253
-4.7933545 -4.5385013 24.94217
-4.5766263 -4.345551 22.152573
-4.4927983 -4.1485896 22.548845
-4.870213 -3.7786086 23.246258
-4.692398 -3.8691413 24.430967
-4.6247663 -4.162893 24.825062
-3.210663 -11.870159 25.10061
-3.5353966 -12.260712 26.390787
-3.3828595 -12.30944 27.47673
-3.4071453 -11.983647 28.299152
-3.7305171 -11.671927 28.598213
-3.4628642 -11.390607 28.78778
-3.990221 -10.399652 22.138447
-3.195715 -10.132419 29.309984
-3.4866958 -8.952342 21.315424
-3.1246152 -9.640473 29.495285
-3.1646507 -9.224245 29.588505
-3.3690262 -8.544631 29.384665
-3.1125004 -8.812393 29.580017
-3.0929835 -7.550246 20.398714
-3.6911 -7.095478 20.50792
-3.3362586 -7.511666 28.593023
-3.31645 -7.9333477 29.029827
-2.9253113 -6.7223067 20.25204
-3.289642 -7.1916714 27.98908
-3.5363615 -4.323659 22.409046
-2.555934 -11.98066 27.464516
-2.8435004 -11.987805 28.078785
-2.5450926 -11.485634 28.538462
-2.7178066 -11.02809 28.850098
-3.0582848 -9.92027 21.953768
-2.6734607 -10.30291 29.168827
-2.5632398 -9.44514 29.50791
-2.7579017 -9.349132 29.605667
-2.6101484 -8.623174 29.520636
-2.7472653 -8.809808 29.608
-2.6855955 -7.8852963 29.096153
-2.118954 -6.8425303 20.012043
-2.6655862 -7.309739 28.368332
-2.3374774 -6.001778 20.199177
-1.7884295 -4.5583024 21.013739
-2.367638 -11.754884 27.770136
-2.235834 -11.543129 27.443624
-2.3403254 -11.400742 28.297806
-2.014999 -10.4762945 28.272806
-2.250469 -9.462995 29.379435
-1.5804038 -8.200185 27.378874
-1.891415 -8.786636 29.052742
-1.8932409 -8.0174 25.547228
-1.9238795 -7.915401 26.701077
-2.279871 -7.425803 27.142412
-2.0586402 -7.633491 28.289877
-1.1707863 -5.829936 20.24439
-1.4542872 -4.218099 20.822107
-1.4730169 -3.3712838 21.662996
-1.3106194 -3.5910316 23.731615
-1.0661192 -3.2461636 21.183153
-1.1737285 -2.8602605 22.226284
-1.3100004 -3.1249318 23.010735
0.01729983 -10.967132 21.929773
0.23995829 -10.507433 20.880693
0.023815691 -10.456455 23.331665
0.16800831 -10.181559 23.97372
-1.4609687 -8.608565 27.141106
0.01590192 -7.688048 20.138979
-0.33487824 -6.5684185 20.060755
-0.24391015 -5.680728 24.965588
-0.6525366 -3.940185 20.332079
0.18725018 -2.4159596 20.47668
-0.2834971 -2.4852169 23.541138
0.06356546 -2.9907258 24.59982
-0.00695017 -1.6339896 21.770588
0.13856153 -1.9201145 23.072182
0.8253105 -11.720227 21.55864
0.8111674 -11.010377 20.639109
0.9555351 -10.6533785 20.357697
0.35211217 -10.46129 20.636253
0.84262586 -9.511444 20.461412
0.25099474 -9.570146 24.032728
0.067918174 -7.108891 20.102705
0.72340965 -7.8558965 25.107498
0.36958557 -3.6376345 25.189512
0.46558943 -2.8756313 20.223066
0.7564928 -2.93121 24.987543
0.6760618 -1.9918231 20.541147
0.56353384 -1.526592 21.39022
0.2571661 -1.4331388 22.406103
0.8022841 -1.5042694 23.0204
0.4788311 -1.4320843 21.785213
0.64969313 -1.3172349 22.255129
1.7986704 -12.214182 21.199049
1.5852866 -12.244521 21.650988
1.2705275 -11.150213 20.57137
1.6818545 -10.3580885 20.166082
1.7241688 -10.097559 24.442572
1.3458848 -8.983301 20.161167
1.7396157 -7.0256276 20.365356
1.2319998 -4.5905123 20.38542
1.8004735 -4.1950073 25.503927
1.3985741 -4.932138 25.606785
1.44932 -3.5201955 20.109434
1.8757949 -3.9576764 25.49926
1.3071742 -2.7459016 20.05523
1.7893491 -2.5897753 24.618929
1.1906793 -2.7758307 24.924997
1.2217402 -2.1206114 20.28817
1.6093833 -1.8295205 20.669792
1.7979282 -1.5230713 22.73099
1.7794216 -1.7825416 23.298788
1.4731771 -1.3296632 21.527372
1.2941831 -1.2790717 22.486923
1.3599503 -1.3909361 22.870262
2.4303567 -12.6690855 21.811563
2.424917 -12.761308 22.415688
2.663288 -12.766216 22.911406
2.1797047 -12.331538 21.20353
2.545765 -12.528841 21.361765
2.212259 -12.35133 23.236382
2.8247054 -11.120523 24.308628
2.9989784 -10.64765 24.67166
2.236301 -9.292042 20.034618
2.8655033 -8.589362 20.14611
2.0931919 -6.95967 20.42202
2.420669 -6.5582414 25.377926
2.5704744 -5.594351 20.836609
2.1803792 -4.0006137 20.440878
2.401307 -4.202129 25.329163
2.5081398 -3.5870543 20.567541
1.937614 -2.6560469 20.272547
2.4233437 -2.3064897 20.662378
2.6167734 -2.8661623 24.424316
2.091784 -1.9823228 20.714705
2.440949 -1.5649023 21.630976
2.5284529 -1.6698693 22.280758
2.3292773 -1.9917291 23.36628
2.1524525 -1.3888599 22.228966
3.0543542 -12.805993 22.272245
3.440715 -12.048321 20.842344
3.4147978 -12.240682 23.49397
3.271593 -12.002367 23.807
3.5015433 -11.393445 24.400597
3.457733 -8.167665 20.396202
4.0906553 -8.166424 26.0226
4.043293 -7.2147284 26.51556
3.4058747 -6.445283 20.797882
3.514046 -4.4075003 24.901611
3.1624556 -3.1348295 21.521942
3.066526 -2.8595896 21.238134
3.0942361 -2.3356483 21.628044
2.9097757 -2.9775045 24.276054
2.8175867 -1.9424493 21.52391
2.8224833 -1.8855569 22.369637
2.8337893 -2.149408 22.91082
3.9144495 -12.241804 21.562849
4.1485524 -12.127489 23.139538
3.9432445 -11.68898 24.063305
4.308469 -11.173628 24.277418
4.960086 -8.0437565 26.538897
4.6901717 -7.20317 26.806355
4.6579766 -6.8634777 26.799307
4.853724 -5.4259844 26.468576
4.733327 -5.8195276 26.67818
4.7217646 -5.028146 26.030739
6.2658553 -11.110911 17.77197
5.5962 -11.363968 22.985231
6.22305 -9.924242 15.62053
6.1955004 -10.666104 16.579586
5.987571 -10.085235 18.540854
6.3871026 -9.381542 14.192437
6.3941164 -9.326905 14.3327
6.208907 -9.454859 15.400325
5.9323792 -9.366414 18.686441
5.457611 -8.840362 25.3893
5.405773 -8.758388 25.939878
6.3758254 -8.729007 14.436043
5.5092134 -7.9913015 26.624874
5.836608 -7.9036226 19.753342
5.468802 -7.122117 26.833763
5.4299884 -6.476999 26.875511
5.503795 -5.6861286 26.665144
5.1248274 -5.259224 22.493658
5.5449557 -5.099452 26.054535
6.9450364 -11.863149 16.824577
7.002828 -11.937237 17.91354
6.5490656 -10.84638 15.865439
6.6288166 -11.555592 17.098557
6.2951474 -10.722097 23.38167
6.8391895 -10.059423 14.025143
6.7216372 -9.17838 13.771313
6.5049925 -9.264843 17.216663
6.9107876 -8.673238 13.641085
6.531896 -8.553954 14.288586
6.3671203 -8.212139 26.135183
7.0547905 -8.058284 14.097299
6.745346 -8.177424 14.572253
7.0822315 -8.084098 17.29958
6.5375557 -7.0234222 26.675716
6.6679196 -7.021599 20.151085
6.950249 -6.523472 20.675953
6.279612 -6.4606624 26.668121
6.573667 -5.929481 21.627844
6.1696177 -5.741415 26.458084
6.3806667 -4.8531175 23.740833
6.667815 -4.894962 24.133238
6.0306554 -5.176966 26.0046
7.771357 -12.126486 15.947644
7.781798 -12.349227 16.845013
7.701825 -12.438339 17.44868
7.485364 -12.125645 18.390001
7.7111983 -10.841345 13.894798
7.3762164 -11.262448 14.967666
7.57724 -11.11966 21.484924
7.3969436 -11.071031 22.62234
7.2872124 -10.981436 23.044847
7.8273025 -9.599421 12.997656
7.4090514 -8.915821 25.346024
7.5688534 -8.647685 13.247372
7.5977054 -8.370991 25.872522
7.5410123 -8.151578 13.717033
7.812966 -7.885993 15.791444
7.5321727 -7.6605935 18.491047
7.433571 -7.3416934 26.392145
7.671166 -7.133125 19.215057
7.5397725 -6.713187 26.411644
7.4057035 -6.2491837 21.340622
7.371965 -5.6645894 26.044254
7.5419173 -5.059897 24.900642
7.3006454 -5.141321 25.473957
8.190288 -12.567212 17.74225
8.9622555 -12.10694 15.124331
8.846733 -12.376594 16.039877
8.238727 -12.427199 16.566011
8.8659315 -12.514608 17.472507
8.533795 -12.385345 18.13593
8.884192 -10.969154 13.035876
8.680745 -11.380976 13.795725
8.269124 -11.477135 14.461794
8.772124 -10.93253 21.321146
8.434438 -10.825266 22.453915
8.01803 -10.756918 23.09766
8.739444 -9.986687 12.528471
8.099494 -10.294399 23.394323
8.990657 -9.565968 12.393866
8.694544 -9.507787 12.600488
8.403232 -9.457538 23.538017
8.13217 -8.836392 24.49036
8.545378 -9.1249895 12.677269
7.9057364 -8.16797 25.792788
8.216084 -7.8431745 14.141809
8.389689 -7.8982625 14.512711
8.163094 -7.285648 26.06309
8.134018 -6.727712 19.940298
8.232279 -6.489204 20.608528
7.9511533 -6.681262 26.262802
8.837811 -6.3473797 21.475836
8.754564 -6.1219983 22.937637
7.814772 -5.505181 23.748966
7.9877505 -5.6028347 25.685728
7.9367785 -5.821546 25.923796
9.7067 -11.6918545 13.721725
9.534962 -11.947041 14.657541
9.313028 -12.209027 15.407227
8.966811 -12.473651 17.720577
8.907509 -11.707577 19.327208
9.620741 -10.903368 12.782729
9.670192 -10.158033 12.401029
9.4841795 -10.4959755 12.545316
9.45426 -9.377975 12.424313
9.218561 -9.304266 12.469856
9.273203 -8.505209 13.19686
9.704632 -8.279743 23.428022
10.193031 -7.7331557 13.77234
9.110198 -7.7304373 16.999458
8.687165 -6.296211 25.246786
9.174093 -6.393162 20.643145
10.27717 -11.616046 13.786516
10.559176 -11.578142 14.4556265
10.295239 -12.020769 15.6351385
10.18506 -12.057172 16.241926
10.182514 -11.148013 13.081159
10.246181 -11.475322 13.594881
10.266612 -11.418814 17.28592
9.827991 -11.3321705 18.548105
10.30102 -11.293236 19.055592
10.239126 -11.024315 21.129494
10.210037 -10.391113 12.638077
10.19111 -9.702362 12.517009
10.065938 -8.913926 12.696733
10.498991 -6.487095 20.156492
10.907425 -6.214498 14.590451
10.574157 -5.9794803 21.596012
10.646944 -11.729913 16.272963
11.964184 -11.220428 20.059404
11.040296 -10.606472 13.329742
11.946722 -9.098642 24.29805
11.774286 -8.299324 12.998156
11.904877 -8.200137 24.280985
11.874761 -7.3702025 12.929178
11.881626 -6.7138853 13.14928
11.460002 -6.928743 18.097141
11.838251 -6.314924 13.318497
11.417983 -6.197065 13.78836
11.535362 -6.324343 22.592339
12.784376 -11.322344 19.818462
12.814057 -11.2151575 21.286415
12.846762 -11.055551 23.138655
12.537469 -9.200111 24.359413
12.554732 -8.735135 13.278788
12.58521 -8.8182745 24.506845
12.59236 -7.4051967 12.894102
12.536271 -8.062335 24.365816
12.264801 -6.7428517 12.997816
12.341745 -5.997266 13.608808
12.548779 -5.8234997 17.590216
12.170063 -6.2410564 21.745068
12.824088 -6.4043875 23.119057
12.962923 -4.805295 16.404186
12.731223 -5.304134 17.325825
13.596754 -11.616089 23.221947
13.689282 -11.115664 20.711586
13.625275 -11.401541 23.547377
13.542185 -11.048623 23.833109
13.985246 -10.478407 24.253103
13.949294 -9.217389 24.473854
13.057202 -7.8632426 13.071002
13.083117 -7.579023 13.08058
13.2171545 -7.5183625 24.070576
13.302355 -6.961041 13.063805
13.711935 -6.2299466 13.69317
13.537681 -7.101854 23.877954
13.324168 -6.3685093 18.59993
12.987749 -6.3733635 22.66757
13.3700905 -5.323775 14.277916
13.634915 -4.9360595 14.859513
13.397784 -4.5957904 15.827188
13.513806 -4.6581798 16.434807
13.288739 -5.046956 17.077612
14.443178 -11.822906 22.613567
14.655112 -11.718221 23.327831
14.529385 -11.181994 16.87382
14.196574 -11.464454 21.574944
14.08683 -11.470157 23.604073
14.452089 -11.1509075 23.93997
14.20913 -10.381511 16.043705
14.205334 -10.348323 24.30734
14.126468 -9.235729 14.541565
14.593906 -9.5339 24.444315
14.162299 -7.636225 24.111805
14.205341 -6.6945653 13.782104
14.7897005 -6.830925 23.368286
14.022176 -7.107986 23.748022
14.243795 -5.6073976 14.148095
14.931977 -6.3712564 22.72295
14.453313 -5.1428204 14.655789
14.037585 -4.7080517 15.429959
14.3220215 -4.8029723 16.275778
13.95456 -4.8365426 16.831644
16.112814 -12.718011 18.219315
16.093626 -12.708915 18.463186
15.929423 -12.979938 19.717733
15.469779 -12.480466 20.38393
15.245437 -11.813276 23.251833
15.3820915 -11.224773 23.91069
15.497851 -10.404406 24.228275
15.874043 -9.422592 24.25536
14.987338 -8.841339 24.371286
15.042702 -7.524849 14.514627
15.128598 -7.438076 23.854515
15.251765 -6.8387814 21.079275
15.50584 -6.5029593 21.561413
15.451372 -6.682946 23.194736
14.73969 -5.9048667 14.288778
14.944553 -5.65328 14.609587
15.358856 -5.4641156 15.521383
15.317491 -5.4544683 16.063217
15.253267 -5.8082514 17.227848
15.283411 -6.438996 21.83986
15.402927 -6.369291 22.449997
15.439762 -6.4261713 22.930214
14.965946 -5.2765813 15.104973
14.804433 -4.9500394 15.751352
17.008251 -12.73275 18.015215
16.696896 -13.04271 18.776709
16.35344 -13.108426 19.572424
16.426828 -12.903164 20.304241
16.990608 -11.854714 16.438528
16.776806 -12.364026 21.039406
16.374134 -11.972503 22.714964
16.441477 -11.795343 23.064398
16.486517 -11.409747 23.506098
16.351027 -11.16563 23.764732
16.52934 -9.74208 24.03777
16.247435 -7.2969117 16.490965
15.89856 -7.8425007 23.962063
16.221292 -6.8238335 18.530003
16.081392 -6.6529837 22.587868
16.219467 -6.948595 23.079552
15.582085 -5.9662437 16.489338
17.47852 -12.636174 17.930649
17.564808 -12.895543 18.623493
17.215012 -13.020917 19.40099
16.97829 -12.856738 20.242786
17.412706 -11.627625 15.996511
17.67504 -12.279082 17.281664
17.4433 -12.406226 20.350424
16.964132 -11.74047 22.148771
18.036484 -10.883597 14.340772
17.689476 -11.031482 14.56867
17.855774 -11.5011215 15.307333
16.967285 -11.137297 23.36445
17.81231 -10.514044 14.281576
17.273302 -10.54389 23.303848
17.033329 -10.448861 23.661783
17.422684 -9.207793 23.599508
16.874235 -9.405017 23.87463
17.36556 -8.644702 23.392714
16.80988 -8.820802 23.865917
17.592388 -7.502655 18.793297
17.471851 -7.975204 19.403095
17.146711 -7.732738 21.552544
17.243036 -7.7131243 22.652756
17.15508 -8.033622 23.243238
17.152325 -7.1425066 18.39415
18.29401 -12.69425 18.745281
18.309328 -12.684461 18.982267
18.360424 -11.628293 15.451323
18.130245 -11.993724 16.9372
18.39939 -12.338219 17.809322
18.618032 -12.413252 18.322416
18.542778 -12.287767 19.279951
18.494404 -11.821074 19.858395
18.342049 -10.815631 14.243722
18.411718 -11.470017 15.029168
18.434204 -11.47256 20.174938
18.105598 -10.736502 14.157556
17.720398 -9.942333 22.785599
18.021456 -9.338432 22.525864
18.235428 -9.179824 14.2804575
17.83837 -8.419631 22.40082
17.787779 -8.787307 23.013357
19.089178 -7.6666822 14.783929
18.06362 -7.869309 18.57255
17.767355 -8.17988 22.326048
19.018604 -11.608066 16.4336
18.789705 -12.128777 19.113068
19.31685 -10.800494 14.278966
19.371346 -11.249846 14.816734
19.240725 -11.335198 16.443048
19.434843 -11.215845 18.183119
19.082851 -11.203967 19.206093
19.325804 -10.530404 14.149873
19.224934 -9.54492 13.977084
19.609789 -8.775131 13.893425
19.572742 -8.040324 14.133432
19.391382 -7.6695805 14.554249
20.75671 -10.764369 14.564441
20.481825 -11.148579 15.441433
20.216545 -10.302545 14.097821
20.20495 -9.898919 17.658234
20.337875 -9.414096 13.877182
20.288948 -9.676827 17.5708
19.66951 -9.293238 18.387646
20.28819 -8.493644 13.953055
19.952969 -8.645877 17.937498
20.28543 -7.9343963 14.218422
20.308283 -7.633371 14.570352
20.692965 -7.5189238 15.525327
20.724154 -7.612862 16.506748
20.237785 -7.899118 17.146502
20.365759 -7.423535 15.695876
21.035763 -10.809936 14.801176
21.390558 -10.703861 15.45544
21.095251 -10.403356 14.305889
21.515594 -10.539491 14.8224945
21.443066 -10.579528 15.708368
21.433386 -10.317868 16.118744
21.17357 -9.548625 14.12419
21.521324 -9.303413 16.537085
21.076876 -9.283688 16.995804
20.896717 -8.736346 14.098923
21.322803 -8.672769 14.490692
21.442245 -8.507575 16.398687
21.216541 -8.693735 16.852678
21.065567 -7.9966154 14.826811
21.118856 -7.8126636 15.396739
21.10249 -7.923832 16.412153
20.894121 -8.095852 16.968035
21.682768 -10.298234 14.793266
21.840576 -10.1285095 15.357413
21.682964 -10.215654 15.818911
21.793966 -9.596339 14.740987
21.88219 -9.657809 15.543763
21.831131 -9.137476 15.889495
21.783379 -9.144823 14.952331
21.707644 -8.694545 15.667723
21.640263 -8.920422 16.272034
VERTICES 1 568
567 0 1 2 3 4 5 6 7 8 9 10 11 12 13 14 15 16 17 18 19 20 21 22 23 24 25 26 27 28 29 30 31 32 33 34 35 36 37 38 39 40 41 42 43 44 45 46 47 48 49 50 51 52 53 54 55 56 57 58 59 60 61 62 63 64 65 66 67 68 69 70 71 72 73 74 75 76 77 78 79 80 81 82 83 84 85 86 87 88 89 90 91 92 93 94 95 96 97 98 99 100 101 102 103 104 105 106 107 108 109 110 111 112 113 114 115 116 117 118 119 120 121 122 123 124 125 126 127 128 129 130 131 132 133 134 135 136 137 138 139 140 141 142 143 144 145 146 147 148 149 150 151 152 153 154 155 156 157 158 159 160 161 162 163 164 165 166 167 168 169 170 171 172 173 174 175 176 177 178 179 180 181 182 183 184 185 186 187 188 189 190 191 192 193 194 195 196 197 198 199 200 201 202 203 204 205 206 207 208 209 210 211 212 213 214 215 216 217 218 219 220 221 222 223 224 225 226 227 228 229 230 231 232 233 234 235 236 237 238 239 240 241 242 243 244 245 246 247 248 249 250 251 252 253 254 255 256 257 258 259 260 261 262 263 264 265 266 267 268 269 270 271 272 273 274 275 276 277 278 279 280 281 282 283 284 285 286 287 288 289 290 291 292 293 294 295 296 297 298 299 300 301 302 303 304 305 306 307 308 309 310 311 312 313 314 315 316 317 318 319 320 321 322 323 324 325 326 327 328 329 330 331 332 333 334 335 336 337 338 339 340 341 342 343 344 345 346 347 348 349 350 351 352 353 354 355 356 357 358 359 360 361 362 363 364 365 366 367 368 369 370 371 372 373 374 375 376 377 378 379 380 381 382 383 384 385 386 387 388 389 390 391 392 393 394 395 396 397 398 399 400 401 402 403 404 405 406 407 408 409 410 411 412 413 414 415 416 417 418 419 420 421 422 423 424 425 426 427 428 429 430 431 432 433 434 435 436 437 438 439 440 441 442 443 444 445 446 447 448 449 450 451 452 453 454 455 456 457 458 459 460 461 462 463 464 465 466 467 468 469 470 471 472 473 474 475 476 477 478 479 480 481 482 483 484 485 486 487 488 489 490 491 492 493 494 495 496 497 498 499 500 501 502 503 504 505 506 507 508 509 510 511 512 513 514 515 516 517 518 519 520 521 522 523 524 525 526 527 528 529 530 531 532 533 534 535 536 537 538 539 540 541 542 543 544 545 546 547 548 549 550 551 552 553 554 555 556 557 558 559 560 561 562 563 564 565 566
POINT_DATA 567
SCALARS features_00 float 1
LOOKUP_TABLE default
0.45131472 0.45740205 0.5065236 0.6118979 0.48849127 0.4153521 0.48838186 0.3489277 0.4624825 0.35087594 0.4651605 0.52884156 0.53484195 0.56372464 0.57015383 0.6201585 0.6779511 0.6787418 0.60898966 0.6337645 0.66394615 0.7044257 0.69132906 0.6965605 0.7139231 0.69769657 0.50888294 0.5601798 0.63757646 0.68764776 0.7144606 0.48539096 0.44215894 0.6232259 0.48542917 0.48943532 0.48069376 0.37455836 0.5059242 0.41117513 0.4691282 0.35498172 0.5605433 0.5514512 0.5991187 0.64784026 0.6722256 0.65130574 0.67635655 0.7116747 0.6836872 0.48644584 0.5717751 0.68100977 0.7777271 0.8020556 0.5035565 0.48535433 0.7630966 0.7624412 0.45470935 0.6859442 0.6411383 0.6670078 0.6323712 0.6877557 0.32983997 0.35364383 0.6971388 0.32595348 0.5651721 0.5614251 0.585273 0.59680986 0.6775391 0.65861607 0.6103798 0.48133588 0.6893505 0.8149185 0.79977083 0.8016653 0.78732264 0.46040395 0.70722514 0.42571437 0.6729069 0.6677942 0.6902192 0.6744676 0.2528139 0.30711272 0.75171757 0.72734255 0.25514567 0.7670535 0.45135045 0.7390797 0.76356685 0.7390678 0.74732095 0.41653773 0.69761896 0.6299412 0.6505772 0.64846885 0.6532943 0.7064705 0.22858292 0.80150026 0.26935035 0.2800928 0.7167381 0.6514664 0.71822405 0.63161194 0.6005529 0.5341192 0.663625 0.27521166 0.42092723 0.63218474 0.83132344 0.27084848 0.339 0.40002835 0.39775345 0.45831847 0.5310347 0.48578107 0.5656157 0.42589962 0.38953385 0.31963652 0.41072708 0.18758744 0.19370654 0.23901525 0.3865229 0.6784022 0.47781423 0.49811512 0.6459899 0.5689684 0.49242115 0.45282924 0.39692876 0.4061357 0.31536067 0.29969817 0.20959146 0.11321585 0.5196893 0.66819483 0.56657773 0.77125835 0.7509781 0.6367411 0.61690855 0.702104 0.6723255 0.50672853 0.51176417 0.46214885 0.33568722 0.3973577 0.26926515 0.11898576 0.2950476 0.4802426 0.33863467 0.6193975 0.5031531 0.7214023 0.52867556 0.5694219 0.77677673 0.8114475 0.63969004 0.5723099 0.7635935 0.66631794 0.63774824 0.5515458 0.5573486 0.5535516 0.50734854 0.5318749 0.51688755 0.38996515 0.3205244 0.29468447 0.24746159 0.0904313 0.15700024 -0.00011154264 0.50641185 0.43060705 0.62301517 0.7326077 0.77041006 0.48188978 0.79956496 0.7523767 0.6810926 0.5585783 0.67755663 0.56797993 0.5094532 0.45825857 0.43384916 0.37441412 0.16730869 0.44488698 0.49149424 -0.015772015 0.3032531 0.6984223 0.73978114 0.75260603 0.45629802 0.76854956 0.66908634 0.58859754 0.561457 0.41890073 0.3734402 0.3116379 0.4867262 0.52022314 0.5293922 0.47637665 0.51093066 0.391734 0.44527194 0.2031059 0.5111866 0.44701207 0.3270274 0.56536096 0.56370664 0.5120742 0.25082234 0.37175933 0.42390367 0.573218 0.49140292 0.1480529 0.528084 0.53901154 0.51609635 0.16135177 0.45357788 0.47926104 0.4769237 0.49705413 0.4696989 0.106228024 0.5983455 0.6021993 0.42796972 0.62693286 0.59246576 0.47025877 0.63136125 0.59659404 0.37826973 0.52968866 0.11255023 0.077853695 0.5369407 0.10313526 0.52386117 0.31949764 0.41078088 0.48948616 0.46958503 0.4695754 0.46697456 0.46306545 0.65435565 0.5349854 0.15212253 0.16738495 0.1717942 0.6264399 0.3578122 0.6625297 0.4510694 0.6627357 0.47527045 0.10733935 0.524148 0.060947333 0.5505818 0.069300234 0.5559067 0.5199583 0.5577395 0.4575152 0.4632702 0.46125954 0.46355286 0.4384035 0.4326778 0.65175295 0.5684819 0.50953144 0.08580258 0.19558437 0.19230247 0.59635234 0.1947947 0.57839453 0.5808869 0.1801801 0.23176882 0.5607112 0.44503343 0.608593 0.5568825 0.5238615 0.051378667 0.051486745 0.554029 0.065968975 0.12772639 0.36610878 0.56371903 0.56122386 0.5421517 0.47350767 0.4643162 0.4249733 0.25149408 0.6390804 0.5958222 0.6184163 0.55314577 0.55322313 0.47872686 0.06709309 0.33995268 0.18431628 0.5776592 0.0880997 0.5267242 0.43899965 0.45815653 0.4624263 0.61745095 0.5580481 0.39560828 0.27652192 0.11188553 -0.053087167 0.610653 0.55364347 0.49468237 0.17250001 0.299676 0.16190715 0.4389853 -0.09677265 0.58591795 0.30971903 0.40221137 0.34209913 0.46056783 0.4882605 0.058088176 0.5006343 0.4263414 0.22532871 -0.079806425 0.06709577 0.44050834 0.3614457 0.36946154 0.38494653 0.50298697 0.38465166 0.51951563 0.5497681 0.26127768 0.2237985 0.38790923 0.48418814 0.34219137 0.45664644 0.056098387 0.47621512 0.47252315 0.48833656 0.4458565 0.4779209 0.5066944 0.43440184 0.5492199 0.5661111 0.43234143 0.19560617 0.36187613 0.59507656 0.6435081 0.6058961 0.5662532 0.45664328 0.45948648 0.5163772 0.16826 0.22748989 0.49503377 0.5069567 0.20618615 0.49822712 0.39490938 0.49753433 0.43605047 0.52090704 0.45054257 0.4298847 0.593114 0.45132244 0.6265504 0.6494156 0.6189542 0.5543134 0.41915554 0.44884345 0.51864624 0.4164485 0.5382938 0.55524623 0.5675305 0.5614724 0.5205313 0.4950571 0.4637761 0.4501685 0.486419 0.48313603 0.5715891 0.5943521 0.58993614 0.57984364 0.42487404 0.46386528 0.480861 0.48494488 0.6268194 0.6326264 0.42710355 0.50271404 0.5328615 0.5156473 0.24275166 0.41616917 0.48087618 0.5230077 0.56167793 0.5729646 0.5618416 0.31404856 0.5716729 0.12758915 0.53078276 0.56334645 0.4638595 0.42455846 0.49464256 0.5272387 0.51032174 0.3038298 0.34873945 0.48541963 0.4314478 0.49537623 0.45316094 0.41294014 0.5540405 0.4786591 0.5499048 0.5637269 0.55633444 0.56066287 0.5629158 0.56534266 0.09083533 0.07051296 0.46979827 0.5811571 0.57925963 0.1419576 0.50811875 0.519001 0.41131222 0.3226112 0.43046108 0.47863436 0.51084304 0.48802134 0.5152707 0.44052976 0.45191306 0.5073134 0.53548455 0.54170424 0.5810375 0.5549194 0.5589153 0.75156415 0.1242311 0.55477756 0.3542659 0.4929921 0.5870587 0.52525765 0.38797444 0.47409594 0.41783562 0.6184081 0.6796378 0.772991 0.7868016 0.78759736 0.8034438 0.6927397 0.7866714 0.4529512 0.8690318 0.47715068 0.3921074 0.8502954 0.47282183 0.8547706 0.85983527 0.8293521 0.7148882 0.58131355 0.7934914 0.81892574 0.8243257 0.8769951 0.8584049 0.80607593 0.74557424 0.983744 0.67379355 0.5897601 0.93213075 0.9747753 0.706465 0.62511075 0.9097762 0.8470838 0.7258692 0.64066607 0.8677019 0.8441571 0.8052454 0.9213568 0.81947875 0.7735587 0.9173966 0.80874074 0.7191974
SCALARS features_01 float 1
LOOKUP_TABLE default