# vtk DataFile Version 2.0
Really cool data
ASCII
DATASET POLYDATA
POINTS 7464 float
2.4284065 31.85661 -13.763278
2.4488676 32.565228 -15.018731
2.329876 32.49649 -14.262141
2.3814924 32.445602 -13.3451605
2.4415622 32.511158 -12.893952
2.4337463 33.548187 -15.425752
2.3313603 33.41967 -14.747416
2.3898947 33.20178 -13.470223
2.4467304 33.24182 -12.98881
2.4482532 34.971516 -17.536926
2.2766137 34.902187 -16.482817
2.4078228 34.32739 -15.240241
2.361508 35.428593 -17.923298
2.147758 35.60243 -17.393383
2.2277627 35.315575 -16.503582
2.1430118 35.90913 -15.349748
2.153999 36.79022 -18.178772
2.0077846 36.389027 -17.557684
1.8587805 36.60148 -16.30837
1.9922761 36.466316 -15.661948
2.1996872 36.426735 -15.181114
2.0151215 37.524532 -18.18373
1.8711555 37.56172 -17.57237
1.9378732 37.366314 -16.547562
2.094813 37.34199 -15.881973
2.3008828 36.920498 -15.163551
2.2913616 38.13141 -18.755909
2.1086006 38.206123 -18.32968
2.0346262 38.442814 -17.604197
2.1467443 38.24951 -16.440756
2.335928 38.4348 -15.714592
2.324272 39.120907 -16.6664
3.2153504 26.031603 -18.079021
3.2620232 25.970661 -17.552956
3.3806353 26.186827 -16.857744
3.2404978 26.555506 -18.289305
3.0945764 26.434998 -17.532782
3.193522 26.665236 -16.842154
3.1776724 27.344704 -18.275726
3.0185971 27.449202 -17.393959
3.0990179 27.50822 -16.83666
3.1609366 27.924551 -17.983116
3.2388587 28.145823 -16.764761
3.1996524 30.845766 -16.315973
3.0194366 31.150932 -15.410732
3.0916104 30.85795 -14.960075
2.9227233 30.996246 -13.47988
3.054359 31.14101 -12.708142
3.2423768 31.600473 -17.37508
2.6703825 31.694275 -15.626051
2.796971 31.386389 -14.211539
2.5886652 31.693195 -13.395957
2.7344213 31.719593 -12.699101
3.1815772 31.739344 -12.004851
2.7826161 32.62808 -17.305529
2.604404 32.682426 -16.616549
2.5665467 32.441883 -15.539214
2.6442235 32.589916 -12.411789
2.9480598 32.579884 -12.041016
2.9281502 33.59016 -17.898445
2.623865 33.45714 -16.106297
2.532381 33.422886 -13.167013
2.6706853 33.349483 -12.593028
2.9053555 33.079178 -12.05419
3.1393087 34.97757 -18.657583
2.8851528 34.770557 -18.340256
2.5266426 34.99768 -17.73327
2.5392654 35.071434 -15.42084
2.6371229 34.334473 -14.359874
2.8659406 34.104065 -13.219441
2.8025157 33.76644 -13.048978
2.522847 35.93789 -18.15745
3.4318814 36.69276 -25.407413
3.4109297 36.71492 -24.748585
2.5809646 37.02755 -18.790314
2.599213 36.578835 -14.804227
3.401072 37.222794 -25.228107
3.3917713 37.366684 -24.681389
2.6602235 37.636616 -18.988474
2.6589694 37.273205 -14.973496
2.3636498 38.093002 -18.789122
2.4017844 38.612827 -18.51942
2.5387552 38.690464 -15.633836
2.9476166 38.95477 -18.767101
2.627438 38.99799 -18.445536
2.5834265 39.450012 -17.336643
2.575572 39.467453 -16.591318
2.783521 39.287724 -15.677612
2.9175093 39.103344 -15.207803
3.0489998 39.788197 -17.921968
3.0397887 40.004276 -17.470284
2.9426012 40.00661 -16.54693
3.0951476 39.854187 -15.8403225
4.201942 25.13884 -18.185642
4.037226 25.316448 -17.371855
4.0472665 25.814442 -18.972113
3.627778 25.739437 -18.369665
3.613181 25.566746 -17.529629
3.652784 25.746775 -16.921776
4.3190722 26.921453 -19.99165
3.8763173 26.722876 -19.460419
3.4536533 26.2288 -16.656319
3.8379445 26.741386 -16.035547
4.151272 27.828217 -19.890621
3.6764126 27.521908 -19.276394
3.6840312 27.202658 -16.058725
3.7471638 28.071882 -19.204288
3.6589603 28.406046 -18.280823
4.1527686 28.588806 -15.953982
4.1726203 28.716644 -10.320143
4.2370663 28.926657 -9.613109
3.8547995 29.900723 -15.745899
4.122318 29.958223 -13.733285
4.0098577 30.152718 -13.053539
4.206662 29.279821 -11.3273945
3.9481921 29.34838 -10.498455
4.1382904 29.48187 -9.661727
4.2970715 29.41872 -9.187427
4.0955014 30.901014 -17.6058
3.7590742 30.335688 -16.49333
3.4129863 30.581282 -13.198964
4.107093 30.733284 -12.259534
4.1563516 30.963453 -11.892616
4.0722747 30.019411 -10.176785
4.2577524 29.93969 -9.5598345
3.8079033 31.871552 -18.306705
3.3768327 31.423471 -11.989139
3.665246 32.229347 -18.309761
3.6110442 33.540703 -18.441893
3.7446685 33.424263 -11.64502
4.246611 33.25055 -11.175044
3.4400883 34.928596 -18.832474
3.3416018 34.361706 -13.376005
3.6012235 34.242775 -12.841408
4.030806 34.0579 -11.847631
4.06044 36.099613 -26.155802
3.919507 35.887527 -25.341919
3.8317997 35.94961 -24.653708
3.9303331 36.012745 -24.033482
3.5285666 35.721394 -18.94881
3.8900924 35.6764 -14.165425
3.9329662 34.95943 -12.85493
4.133254 36.823406 -26.64774
3.8776662 36.618477 -26.286837
3.5695562 36.41176 -25.491879
3.5300572 36.42824 -24.461563
3.61484 36.55487 -23.94229
4.187178 36.68929 -22.66499
4.403172 37.028534 -21.13651
3.6531672 36.590393 -19.22647
3.3622773 36.13066 -14.543831
4.1883082 37.305237 -26.67575
3.901978 37.21438 -26.285421
3.5413263 37.300312 -25.509134
3.648111 37.598694 -23.84209
3.9385424 37.529247 -22.59678
4.242262 37.337463 -21.242758
3.9097474 37.323547 -19.44557
3.3945901 37.477695 -14.841095
4.1066847 38.305756 -25.991539
3.9359906 38.37965 -25.310656
3.5708258 38.02978 -24.83385
3.7577527 38.53572 -23.641798
4.0001616 38.55704 -22.762054
4.423956 38.75968 -21.256168
4.3976774 38.469326 -20.486172
3.656291 38.592335 -19.276812
3.8017302 38.25281 -14.536673
4.2409754 39.17798 -25.23331
4.1162596 39.443584 -24.358677
3.9992762 39.35309 -23.58906
4.156801 39.2471 -22.720919
3.4597654 39.198814 -14.963254
4.2483344 39.81404 -23.504375
3.6332333 40.173225 -18.03462
3.6349876 40.437134 -17.48474
3.4791856 40.43271 -16.517105
3.6396236 40.243694 -15.813354
3.55363 39.775978 -15.184127
4.0884542 40.631485 -17.465136
3.8277428 40.63501 -16.32056
5.0817614 25.217064 -19.883205
5.0274997 25.180725 -19.515081
4.573611 25.032354 -17.504108
4.286811 25.255423 -16.925623
4.9288483 25.860804 -20.117928
4.6181865 25.627493 -19.503698
4.4982467 25.460455 -16.535017
5.048871 25.397285 -15.960223
4.691619 26.655106 -20.223215
5.096903 26.247768 -15.679507
5.1862106 27.507544 -20.916279
4.4095283 27.480566 -20.193695
4.7921224 28.09168 -10.935991
4.774386 27.87863 -10.480532
4.605566 28.096773 -9.792268
5.0119042 28.084774 -9.178153
5.21995 28.221632 -20.826012
4.655239 28.429674 -20.1325
4.832385 29.105978 -15.27275
4.4982266 28.569098 -9.44044
4.8388557 28.692944 -8.951698
4.913224 29.021725 -19.901718
4.609721 29.040825 -19.39555
4.5120444 29.30117 -18.78564
4.3292975 29.586046 -14.899651
4.463817 30.04077 -13.563209
5.103763 29.617718 -12.67268
4.7650347 29.527718 -8.750137
4.8242707 30.444378 -8.871565
5.2545652 30.24427 -8.019308
4.831985 31.616812 -18.572765
4.5926647 31.028149 -10.270441
5.244405 31.03636 -8.992468
5.36159 30.846228 -8.1730175
4.4993896 32.928886 -18.86367
4.515562 32.675728 -11.02297
4.6951575 33.517902 -11.063082
4.8755984 35.35568 -25.484112
4.73327 35.411148 -24.478277
5.2706037 34.51574 -20.965889
5.1790657 34.50199 -20.54221
4.442651 34.971367 -19.402735
4.7918286 36.18168 -26.609142
4.6084266 35.858017 -26.240883
4.3549886 35.528465 -25.372303
5.0833073 35.772793 -23.312782
4.8070145 35.989082 -22.750229
5.229382 35.826717 -21.42567
4.7112513 35.402363 -12.443421
4.983899 35.041176 -11.610332
5.2529497 34.87378 -11.102364
4.54587 36.627945 -26.75531
4.289126 36.347595 -26.583214
5.036664 35.93195 -12.627464
4.5966225 37.426567 -26.781342
4.7236433 37.52329 -14.017415
4.955883 38.35894 -26.694204
4.6277885 38.36899 -26.49447
4.9341116 39.313934 -26.068527
4.472944 39.39401 -25.3943
4.714632 39.383625 -21.343819
4.9236107 39.59089 -20.591394
5.4302254 39.88634 -12.828767
4.676398 39.958363 -24.38907
4.6008873 40.070667 -23.689274
4.8707047 39.84972 -21.71457
4.8776526 40.189854 -13.708505
5.1745095 40.54936 -12.580717
5.304124 40.75844 -12.248801
4.683425 40.81959 -17.29813
4.644279 40.846104 -16.649376
4.6453547 40.882378 -16.001038
5.137929 41.429024 -14.071716
5.0578046 41.36962 -13.517994
5.1514974 41.348434 -12.677051
5.198933 41.779404 -13.144634
5.364442 41.899372 -12.738537
6.297356 22.171886 -17.025074
6.28929 22.10685 -16.506433
6.3002925 22.288216 -15.8823185
6.146727 22.57266 -17.298992
6.007603 22.623438 -16.64183
6.1154785 22.52547 -15.873946
6.1157956 23.228165 -11.372862
6.277724 23.184631 -10.768757
5.9237833 23.97021 -19.328102
6.031971 23.74884 -18.484201
5.7052174 23.83572 -17.685093
5.7495494 23.478 -16.219225
5.8391633 23.48464 -15.798488
5.9894075 23.852077 -12.336101
5.809615 23.690002 -11.414433
6.1066303 23.40576 -10.718154
6.172559 23.955671 -9.519184
6.0206494 24.731195 -20.218102
5.546961 24.68352 -19.540308
5.566345 24.340296 -18.41156
5.659214 24.519062 -16.50072
6.0184464 24.469172 -14.731744
6.090058 24.295902 -12.947254
5.6859565 24.365717 -12.010347
5.5793815 24.592268 -11.295975
5.653477 24.42025 -10.988557
5.873511 24.717255 -9.678722
6.2116413 24.496666 -9.002262
5.9531803 25.288387 -20.632423
5.3416157 25.799286 -20.54103
6.1152043 25.938835 -13.360684
5.7163577 25.011457 -12.125738
5.78759 25.426727 -11.5373335
5.867918 25.041323 -10.250719
5.8391585 25.373005 -9.631077
6.0735216 25.176722 -9.192175
5.468875 26.77123 -20.83677
6.1373305 27.029123 -12.953784
6.062678 26.133272 -9.442278
6.177102 27.179928 -9.052031
5.589597 27.408514 -21.209286
6.0826764 27.592146 -13.4520235
6.0488863 27.64584 -12.410229
6.317996 27.76779 -4.347621
6.256417 27.88643 -3.4395943
6.373442 28.014751 -2.878625
5.616323 28.117868 -21.315523
6.0549927 28.200905 -13.081105
5.8790054 28.696995 -12.962427
5.5211267 28.966198 -8.120908
6.284017 29.165142 -7.2876225
6.31651 28.916119 -4.9872313
6.132293 28.47182 -4.2936354
6.0493827 28.51745 -3.4565234
6.2419224 28.590416 -2.8107195
5.86528 28.724361 -21.094873
5.9075923 29.075935 -20.320656
5.5910144 29.753706 -7.6639156
6.1747713 29.148335 -4.353635
6.1091976 29.220451 -3.449753
6.258499 29.16989 -2.9371662
5.787561 29.774904 -19.192528
5.8310986 30.543587 -7.3717327
5.6987677 32.01655 -18.587244
5.561785 31.312778 -8.098085
6.2744155 30.908699 -7.3041315
6.118827 32.876904 -21.307636
5.5684376 32.674606 -18.98587
5.41003 32.517105 -10.475067
6.092094 32.238834 -7.561359
6.2291083 33.98642 -22.33469
5.8742266 33.575874 -21.47552
[...]
POINT_DATA 7464
SCALARS features_00 float 1
LOOKUP_TABLE default
0.44894764 0.32371014 0.39083874 0.46516228 0.4846632 0.23722625 0.29380876 0.42102617 0.4444216 0.3035364 0.31197447 0.20772132 0.33321595 0.37863117 0.35932186 0.34199136 0.43767124 0.4548363 0.45853385 0.3955547 0.35863772 0.48900765 0.5343516 0.503412 0.43765783 0.37774885 0.46699125 0.4971495 0.5477668 0.5060683 0.4521054 0.53085995 0.563141 0.54799366 0.53008646 0.59630597 0.5844576 0.5672679 0.6089078 0.61209184 0.5807673 0.6043463 0.519418 0.30082563 0.30063903 0.30715242 0.42031926 0.437952 0.36853564 0.3116158 0.39922252 0.47054565 0.48844916 0.47559094 0.3106494 0.28410724 0.30519545 0.495237 0.49579364 0.2500081 0.22955243 0.42413104 0.44193137 0.46474215 0.222141 0.23736747 0.29761696 0.26215708 0.24458495 0.34259117 0.39144856 0.35022068 0.77676576 0.6994065 0.40095574 0.30734918 0.73042786 0.6511881 0.4190293 0.3604104 0.4605828 0.48713258 0.4537089 0.4458044 0.49379188 0.5415735 0.5173203 0.47355533 0.4370563 0.5088254 0.50275904 0.49249953 0.4773801 0.41168606 0.44531786 0.45939985 0.5147193 0.50069207 0.48908317 0.40926844 0.47846067 0.51689893 0.4685912 0.44682378 0.5191747 0.47765625 0.5173863 0.55010647 0.1761149 0.40744102 0.41329905 0.15539709 0.15707906 0.21175563 0.21785612 0.38331342 0.39292103 0.38535318 0.34143382 0.27068394 0.34709692 0.27571374 0.28810376 0.35453704 0.361225 0.34348845 0.4332586 0.3317421 0.21795523 0.35925007 0.2691988 0.18421017 0.25535733 0.28095788 0.2594744 0.85931766 0.8264744 0.734614 0.65236604 0.23937985 -0.0020381808 0.1092139 0.8426158 0.84611017 0.8005593 0.67871875 0.6058999 0.41449028 0.1486042 0.27490216 0.17494047 0.8259225 0.8225814 0.7608057 0.5396794 0.38544518 0.21013959 0.24139945 0.30378285 0.76453924 0.6863408 0.6357012 0.49491864 0.39248848 0.25899258 0.070774645 0.3145731 0.2932346 0.646639 0.5660474 0.49448508 0.4088653 0.38680005 0.4971856 0.42616057 0.4318136 0.4555297 0.4393335 0.4010685 0.35641116 0.42504615 0.3125635 0.31387925 0.34947926 0.39887613 0.3428716 0.3685776 0.375674 0.24831793 0.37289366 0.33240828 0.3745188 0.41249293 0.29413587 0.36791503 0.4137298 0.35220468 0.3842165 0.4084289 -0.0129300505 0.41353232 0.3779866 0.35631797 0.3894053 0.3773343 0.089341775 0.11164525 -0.10800323 0.3644019 0.30551395 0.28187746 0.2611001 0.20474923 0.21896325 0.2149783 0.24604318 0.25147763 0.16869137 0.8049902 0.70380193 0.04600071 -0.0076235943 0.014768923 0.82822984 0.8491504 0.8480851 0.5257046 0.4038655 -0.020268686 0.013547693 0.032848746 -0.009641852 0.8324475 0.8515052 -0.08097343 0.8106291 -0.047657624 0.7514 0.7647654 0.7091967 0.66399634 0.29519615 0.19800417 0.33417892 0.5802237 0.5204072 0.34371784 0.31498286 0.4359461 0.4610402 0.24334452 0.292168 0.25654325 0.36345223 0.46683434 0.5105628 0.5076033 0.5272394 0.44790894 0.44977632 0.42878914 0.40440172 0.41216874 0.41078985 0.5350481 0.5583903 0.31525463 0.28431162 0.24301241 0.29422382 0.271592 0.48819777 0.53400826 0.56544036 0.55230916 0.28772834 0.2949853 0.25291732 0.15024847 -0.008187756 0.38567573 0.4732958 0.5014758 0.52826995 0.5032324 0.5049869 0.26902825 0.31189144 0.010618206 0.37942636 0.35948047 0.4799509 0.4152308 0.4301176 0.33663845 -0.07114001 0.281173 0.12694584 0.34876573 -0.13894308 -0.10503312 0.5635827 0.6136689 0.62407494 0.35722694 -0.14597405 -0.18847467 0.3303068 0.21606694 0.51165676 0.5908704 0.627517 0.6284212 0.33044034 0.2908322 0.30176067 0.5926864 0.6255241 0.61598396 0.21107982 0.18194982 0.22160983 0.12229489 0.085622184 0.30531058 0.16953886 0.04728213 0.07064217 0.27623641 0.29991418 0.43037224 0.33186808 0.46710086 0.36783013 0.6985868 0.6175029 0.25565875 0.12435727 0.06201829 0.55251586 0.5573309 0.54401004 0.7950376 0.7787467 0.6993673 0.5169934 -0.076394066 0.33014348 0.5041269 0.5683367 0.56986564 0.7785156 -0.07819183 -0.02272398 0.5103784 0.54934245 0.7624607 -0.102530435 0.044124193 0.7232683 0.14000389 0.21421714 0.17137444 0.6981425 0.6980615 0.33144036 0.30663976 0.69097185 0.6756534 0.59059024 0.44575468 0.37971857 0.24022578 0.42922094 0.047810975 0.073892005 -0.008402463 0.50995815 0.045043845 0.014976442 0.25814074 0.48448867 0.5313208 0.5317085 0.26249528 0.16685303 0.47081065 0.51192003 0.30112785 0.5971498 0.5678613 0.6491885 0.6487191 0.59509706 0.5611061 0.6795945 0.66997695 0.6158217 0.5724538 0.65965796 0.62621725 0.479285 0.4675864 0.4353009 0.3492525 0.49663472 0.36821806 0.36679474 0.40897256 0.33776847 0.31276974 0.45870408 0.5116147 0.5390072 0.55566573 0.3753758 0.4245615 0.4532609 0.5570458 0.5343801 0.24791071 0.50457126 0.43213704 0.4859746 0.18717673 0.57979447 0.55084574 0.46758282 0.074418604 0.14534175 0.37149763 0.4977762 0.56729007 0.5895151 0.617465 0.5965278 0.58299005 0.505703 0.21758892 0.08062651 0.14524376 0.4717644 0.59517395 0.6186098 0.62033606 0.58424526 0.56630373 0.48798364 0.25104672 0.0056904256 0.31677315 0.6188406 0.6098372 0.27225745 0.22842094 0.2284526 0.5881207 0.5466436 0.14609095 0.077975884 0.54221296 0.5104721 0.27927232 0.30377948 0.2705657 0.26718393 0.2883638 0.32961524 0.6516409 0.25244614 0.50894356 0.67855775 0.5704162 0.42005736 0.5472023 0.5256921 0.6987615 0.6780125 0.44072077 0.5244396 0.53854406 0.6976521 0.6555631 0.14191929 0.098915964 0.6735594 0.6613462 0.24176499 0.6809182 0.6628673 0.28551325 0.5265102 0.19724418 0.15424591 0.33746618 0.30116048 -0.053832665 0.054385062 0.46980196 0.43185255 0.009626783 0.086171165 0.5046896 0.10440993 0.20249468 0.30112627 0.1468744 0.41611457 0.47601944 0.4811576 0.26218027 0.32116687 0.33510607 0.3640744 0.39464092 0.42472553 0.43497765 0.39686263 0.39455006 0.4913711 0.47953358 0.5665586 0.5548511 0.57993865 0.5371735 0.509283 0.60038483 0.62721145 0.53875774 0.44746077 0.42069092 0.6288787 0.6691588 0.59384286 0.5424595 0.51050824 0.41806594 0.66752255 0.6607115 0.60829675 0.5449909 0.5068114 0.6245312 0.60137916 0.53539646 0.41919896 0.4078956 0.45964366 0.41679025 0.19128294 0.47480494 0.47301334 0.407449 0.4102595 -0.00431975 0.38544154 0.48931175 0.49803153 0.5152092 0.500954 0.48461396 0.29911014 0.43502778 0.3716987 0.54900634 0.5542139 0.48463893 0.29510063 0.19736056 0.013416049 0.3713383 0.42750907 0.4881071 0.5368358 0.54135436 0.5743177 0.590606 0.21902516 -0.38762635 0.15364763 0.58163583 0.6020944 0.5198257 0.5395708 0.57626486 0.6137709 0.58415234 0.49413165 0.5497069 0.5620476 0.445608 0.48196226 0.5098698 0.4551611 0.45528892 0.1707716 0.18536921 0.42993587 0.05565986 0.065229446 0.26022866 0.25068286 0.13258685 0.16761917 0.41080344 0.21572728 -0.045179375 0.4702259 0.46343476 0.58372575 0.48358864 0.09155199 0.42685807 0.4532959 0.6239428 0.5172795 0.08296836 0.6301671 0.10413677 0.63985753 0.6238765 0.2724679 0.2162933 0.48354638 0.3053555 0.27002114 0.11137207 0.2754989 0.012261968 0.37173435 0.34360546 0.04440726 0.07000315 0.39519733 0.4350545 0.31673104 0.26906952 0.37769535 0.458338 0.33984622 0.39131355 0.4562032 0.4987418 0.45714763 0.42036068 0.3575239 0.58291304 0.54098237 0.51830596 0.42883357 0.38995147 0.5957018 0.58539987 0.27472243 0.6232575 0.35685205 0.6436933 0.63893425 0.49032837 0.61203533 0.57880676 0.51775837 0.47066727 0.3987857 0.64952826 0.7047417 0.6354492 0.6939368 0.6244552 0.365678 0.33706433 0.37639958 0.3576769 0.36877605 0.31796366 -0.08656438 0.37962753 0.38974866 0.3087149 0.42699653 0.46988314 0.44822752 0.41064692 0.17440614 0.38099474 0.3034443 0.3759439 0.4249989 0.49937272 0.5192764 0.4993431 0.26144138 -0.018604683 0.06562053 0.43603933 0.51418924 0.5679954 0.51923305 0.0321509 0.55719066 0.47351474 0.44984233 0.53157926 0.3770361 0.40522763 0.4812643 0.4586587 0.3344371 0.3623875 0.2930327 0.4053092 0.4114321 0.32583976 0.27440092 0.31360587 0.4058431 0.13747823 0.15543182 0.10882874 0.1619938 0.35524392 0.4332046 0.12973848 0.11833528 0.042595513 0.2942045 -0.14154714 0.31199116 -0.2152751 0.18811685 0.2596091 -0.11111465 -0.108054146 -0.12681362 0.075177275 0.10905151 0.08851161 0.20093906 0.4669978 0.19310878 0.16452563 0.47918296 0.3760364 0.23569416 0.17748061 0.29393506 0.49826986 -0.15906167 -0.14943379 0.30072737 -0.08929539 -0.12748592 0.18566705 0.35462546 0.077419266 0.29645786 0.47659892 0.42327642 0.55332404 0.49925697 0.31839976 0.6349508 0.16448623 0.48313618 0.52196497 0.64101857 0.21278316 0.187833 0.44970632 0.5208969 0.6561626 0.6363032 0.26355034 0.3726461 0.43895954 0.6588559 0.6473744 0.2597505 0.2522593 0.65416205 0.6249198 0.5605376 0.52904034 0.46567398 0.4506864 0.26333836 0.04438288 0.20515797 0.4647206 0.41361895 0.6318636 0.71478724 0.7511378 0.5590571 0.49124098 0.6190059 0.71487224 0.77794147 0.79738307 0.51592374 0.5962243 0.6975577 0.8187678 0.8134134 0.6605217 0.5526191 0.6287636 0.7016674 0.787095 0.7996036 0.62902635 0.686335 0.72742593 0.65607107 0.6646696 0.6531874 0.671188 0.6625147 0.61118203 0.6204717 0.6672412 0.65353286 0.60714746 0.6367018 0.5696636 0.62852687 0.6510304 0.6452153 0.6237579 0.5177184 0.3634345 0.5657315 0.5804986 0.52592945 0.60460496 0.6273274 0.584719 0.35231698 -0.040191684 0.35671848 0.34272996 0.42589292 0.29074383 0.5429597 0.29261398 -0.021211352 0.081133425 0.39797544 0.39395833 0.26832554 0.30329907 0.2830306 0.31338215 0.41101944 0.42288363 0.34059268 0.3067692 0.16445385 0.35257813 0.37504414 0.3298 0.45356804 0.06441082 0.39786458 0.39871478 0.43339065 0.4330364 0.31574234 0.30197325 0.41091508 0.24918923 0.2756025 0.30793047 0.207498 0.1719375 0.2064254 0.14199664 -0.06982868 -0.07968392 0.23748218 0.23084858 0.24536943 -0.17184573 0.4103204 0.43012244 -0.23861013 -0.08476375 0.47391593 0.32594374 0.448586 0.4652431 -0.13127214 0.15427162 0.43603593 -0.077006295 0.22403648 0.08542931 0.17755401 0.18991116 -0.1332573 -0.062340554 -0.15916374 -0.10815503 -0.22089875 -0.33423942 -0.03664966 0.24324465 0.027497329 0.40217364 0.43178305 0.43837678 0.072356276 0.47001505 0.5101548 -0.12175957 0.073386796 0.10252809 0.48362768 -0.097568884 0.40285295 0.45197904 -0.0027739257 -0.20985991 0.27352846 0.23764306 0.16331726 0.6106099 0.31857705 0.47384572 0.5077815 0.6767256 0.5131813 0.53284943 0.67151153 0.5240362 0.5152382 0.66374403 0.45080844 0.4691698 0.65301657 0.66272926 0.34049314 0.65582806 0.6270857 0.5035971 0.1599859 0.37051737 0.15509447 0.49493545 0.36576426 0.092066824 -0.058702257 0.5312184 0.5339614 0.46294343 0.02887629 -0.033187047 0.6119523 0.6680261 0.67877483 0.6464364 0.6433381 0.5953909 0.42813545 0.3223584 0.1929971 0.18531282 0.41356814 0.73307586 0.8463303 0.7744574 0.63668823 0.5331712 0.45078042 0.30616748 0.40436703 0.7772477 0.7580255 0.889879 0.8505769 0.7636348 0.66784495 0.5456536 0.4519079 0.75192547 0.7362762 0.8923236 0.8343929 0.7230563 0.54269564 0.5798581 0.5970044 0.62106 0.65043795 0.71210605 0.5439497 0.54871154 0.5590599 0.53446734 0.5538306 0.5958009 0.65463835 0.63372135 0.69877636 0.69008255 0.6625693 0.5621396 0.5792099 0.5832252 0.6115875 0.6589414 0.6336633 0.58489203 0.6135753 0.6168161 0.4025006 0.43417758 0.44591057 0.14173476 0.15828164 0.17975299 0.5856993 0.5354874 0.19731978 0.37540692 0.36536258 0.3576694 0.14463441 0.19025576 0.20706081 0.26589108 0.3149932 0.29857728 0.3044265 0.2777096 0.2574463 0.2865246 0.34037623 0.26713985 0.2732317 0.21743658 0.2311413 0.14361939 0.082683146 0.105239876 0.09850621 0.102212474 0.08921752 0.16944456 0.12135157 0.2715693 0.28671843 -0.32804373 0.22377576 0.32466537 0.31874698 -0.13497907 0.3224141 0.2135616 0.47907063 0.45398974 -0.09893721 0.47885382 0.4978857 -0.0130701065 -0.019994846 0.39256173 0.49953038 0.503686 0.50725234 0.027150344 0.009132109 0.15357795 0.12713958 0.038800865 0.08790899 0.10501408 0.22944804 0.04164121 -0.018486783 0.1078044 0.23131368 -0.02242339 0.0896197 0.59619933 -0.1681124 -0.015703592 0.06102644 0.5823691 0.5250985 0.04874466 -0.18700011 0.021632869 0.017091382 0.07382032 0.16863623 0.40102416 -0.26062816 0.19732188 0.20754807 0.21911737 0.40093327 -0.07623097 0.29339176 0.33561677 -0.094998315 0.28345004 -0.13932364 0.5291921 0.41689658 0.4796399 0.60672796 0.5095579 0.45309296 0.58566797 0.48263118 0.62652594 0.50613296 0.6196517 0.5876479 0.31497213 0.58151793 0.32578465 0.10743475 0.061279465 0.26889372 0.100944966 0.08383684 0.07109797 0.45123142 0.002400864 0.5510987 0.5887697 -0.08747288 0.48822242 0.6594269 -0.08577559 0.6549573 0.82825196 0.71993995 0.8756863 0.47232682 0.3897811 0.69075227 0.69686115 0.8838595 0.8880279 0.84763896 0.7466079 -0.0026335865 0.18170437 0.5685256 0.655306 0.46593595 0.48457402 0.49395463 0.4639656 0.34958002 0.44631594 0.5107189 0.44774124 0.46447933 0.49458185 0.634701 0.5050465 0.5245948 0.5375385 0.5502781 0.5304672 0.5630652 0.6008611 0.32305896 0.2126421 0.5836591 0.09016097 0.10776996 0.3415442 0.29985458 0.31227827 0.29248083 -0.041203804 0.0551627 0.18850246 0.40535623 0.36543432 0.29084626 0.2754106 0.17021716 0.38311517 0.33745015 0.18157697 0.3056737 0.21960649 0.16917744 -0.04848531 0.120540746 0.060229935 0.02033743 0.08173493 0.084244184 0.2856673 0.2126228 0.33983868 0.32575548 0.33973238 0.32745743 0.4196238 0.06434606 0.49931768 0.47274816 0.00043358654 0.49782646 0.5136022 0.5346187 0.52816427 0.012234524 0.0013561249 0.09846169 0.05867905 0.52928054 0.15993193 0.09844671 0.2927938 0.15312052 0.6331606 0.55436176 0.46894288 0.120882794 0.15488148 0.657092 0.6378945 0.091594934 0.6459346 0.6055229 0.066196084 0.09084216 0.5518364 0.25787455 0.13046135 0.36745667 0.18497849 0.2647904 0.29859057 0.28336436 0.13683683 0.27424532 0.34087336 0.35564685 0.2125546 0.22996098 0.29012972 0.38779256 0.15347135 -0.30121812 0.020220183 0.3201845 0.38751557 0.3921819 0.21384934 0.22893551 0.38838527 0.47477078 0.4043057 0.16488466 -0.016596928 0.35693514 0.48764643 0.28292963 0.27751577 0.47294146 0.1114103 0.15288736 0.04501445 0.043366566 0.02397313 0.006171435 0.010026753 0.010822966 0.5436069 0.07756338 0.6339295 0.78563404 0.82662886 0.5677656 0.84609604 0.8196718 0.72721076 0.6120237 0.4255123 0.42100632 0.7158489 0.436475 0.4366398 0.3736692 0.39014703 0.26929194 0.35891217 0.22739899 -0.009349093 0.27138487 0.26956928 0.3005407 0.23897053 0.75059634 0.47306734 0.5566672 0.5741833 0.50100386 0.37857097 0.2725687 0.3076501 0.088968866 0.5805391 0.14781983 0.2327843 0.2634163 0.30250496 0.5119661 -0.066231094 0.14554511 0.06541412 0.22180489 0.2640733 0.31873193 0.389166 0.45540416 -0.033980265 0.07913132 0.16862051 0.23518844 0.25998712 0.22837208 0.3898109 0.35874563 0.30216578 0.12816969 -0.13024919 0.061398976 0.45592886 0.37845546 0.022087067 0.45409364 0.44661096 0.09598073 0.3562042 0.26429775 0.7243202 0.6587579 0.13372867 0.14279006 0.13222158 0.0466004 0.6990396 0.6200251 0.07377675 0.0513791 -0.07646054 0.04783068 0.1642473 0.08149671 0.27193773 0.14921722 0.29081896 0.28384015 0.2887929 0.121925816 0.3683581 0.12813987 0.010677516 0.5302707 -0.09139849 -0.15080301 0.12666391 0.3856064 0.5297837 0.5701952 0.56350297 0.051327772 0.056783587 -0.048245803 0.2883884 0.13401851 0.1174703 0.51393574 0.43495333 0.15471894 0.619833 0.16733512 0.17346281 0.6586038 0.14331354 0.6180599 0.5880244 0.09942303 0.109013334 0.54007494 0.11624428 0.42042577 0.3045473 0.22312579 0.117515 0.3472069 0.3182294 0.31317294 0.23252574 0.40411258 0.25666842 0.15996094 -0.40067762 0.11384979 0.40731692 0.41272485 0.1302294 0.023691636 -0.016567029 -0.14451855 0.1859363 -0.32825965 0.060932633 -0.19216427 0.23609719 0.08776085 -0.02802613 -0.4303277 0.013234211 0.017802885 0.0015241173 0.03877341 0.33329535 0.016894791 0.4742115 0.108028434 0.19105488 0.51487577 0.5460683 0.7422186 0.28303522 0.77888715 0.728451 0.6353183 0.57477105 0.05137682 0.30780607 0.2684434 0.019293003 0.10473954 0.3339632 0.34541053 0.30087966 0.24638733 0.47348243 0.4694754 0.3368588 0.3857233 0.3790859 0.327885 0.24515136 0.15150222 0.19684839 0.3788263 0.3858469 0.26429856 0.12565622 0.070881456 0.34399337 0.09104526 0.0026094355 0.025458919 0.12722887 0.24896753 0.2142502 -0.14240545 0.10348795 0.049506698 0.11637502 0.32098204 0.33658287 -0.0009157285 0.4494242 0.3954338 0.26375294 0.1204702 0.22881453 0.29498675 0.33022895 0.3442218 0.3467666 0.35156438 -0.20297112 0.08137612 -0.29170677 0.32230562 0.33894807 -0.2934493 0.0845264 0.2797587 0.30825302 0.2775181 -0.24275216 -0.03682821 0.22335404 0.25358048 0.31721747 0.30474624 0.27937126 0.04554552 -0.07988648 0.07280747 0.035661902 0.3410744 -0.05321832 -0.05379471 0.7807619 0.7321681 0.68572664 0.002500981 0.7885293 0.74942577 0.7073188 0.51103485 0.07602691 0.77375853 0.7203173 0.6055865 0.36347187 0.10472056 0.16492192 0.24135818 0.727607 0.68316644 0.5525702 0.3867516 0.15973741 0.34756976 0.41335732 0.105894044 0.025224172 0.23922756 0.45151043 0.089266725 0.24876708 -0.055644244 -0.42962942 0.17397343 -0.16728218 -0.23215432 0.42871118 0.46760118 0.55051273 0.5870029 -0.022319123 0.21091431 0.05509887 0.3842951 0.134452 0.60737765 0.09129059 0.14883795 0.6258683 0.07441285 0.6025233 0.5380545 0.47720915 0.14389285 0.3928333 0.21931711 0.32433656 0.33502406 0.41940588 0.3623107 0.43854803 0.3959683 0.21158469 0.35421115 0.41037834 0.4057938 0.39633656 0.20791128 0.041404217 -0.3610209 -0.20152673 0.060285833 0.06975484 0.037911344 0.0948758 -0.06112548 -0.18990785 0.037044775 -0.09296948 -0.15201972 -0.07987628 0.025954787 0.05878119 0.15156588 0.12556395 0.043645747 0.17374243 0.22358927 0.10303182 0.21750858 0.25185388 0.23422463 0.27992028 0.28471044 0.09685479 0.3627532 0.50323516 0.3203653 0.36296853 0.03759011 0.22585243 0.09304956 0.17831422 0.36010656 0.42361647 0.37307495 0.44474417 0.55205363 0.58893013 0.5957297 0.45212454 0.5320312 0.57014 0.5468068 0.45938063 0.357706 0.48975396 0.5337281 0.46617928 0.40069044 0.28027922 0.29342684 0.37015796 0.2836833 0.2963767 0.32292873 0.14661077 0.19846754 0.25414744 0.6726209 0.34009284 0.16796724 0.25503 0.25223538 0.44202822 0.57604814 0.6169485 0.082546756 0.19589594 0.20495129 0.35990855 0.47408372 0.4581477 0.46480224 0.20364769 0.16746902 0.07378821 0.13346466 0.05834609 0.08352128 0.1904523 0.3653257 0.37010562 0.12546468 -0.17267436 0.07855663 -0.06236594 -0.074310824 0.01625213 0.34458315 0.27967203 -0.21729219 -0.14764683 0.30558175 0.2052803 0.2022955 0.24291138 0.16229746 0.05268903 0.18498264 0.14093778 0.13602546 0.1819453 0.20502497 0.18760858 -0.12303993 -0.1509183 -0.011401014 0.12703417 -0.2502771 -0.105279624 0.67290044 0.7916293 0.7503307 0.6324836 0.80401206 0.8196715 0.18895923 0.23733012 0.79321265 0.7870967 0.31226948 0.69755286 0.6558509 0.20775327 -0.0022308528 0.36794302 0.584869 0.48054692 0.37775743 0.22050604 -0.04594543 0.49288195 0.5205511 0.4946339 0.37372473 -0.111361325 -0.06844632 0.53629386 -0.021091431 -0.44332907 0.19531554 0.47308713 -0.44380122 -0.4263827 0.34265584 0.3716465 -0.090062745 -0.06383542 -0.41085103 -0.45171323 0.015315659 -0.16058353 0.12237923 -0.06386119 0.23549798 -0.19224404 0.26990247 0.011322401 0.39008164 -0.021731663 0.38373822 0.034565262 0.0036031269 0.2289728 0.074203566 0.11311324 0.23576811 0.18122968 0.34867364 0.49027014 0.4946978 0.38762957 0.37680352 0.5152735 0.48248518 0.4431283 0.32096148 0.023665814 -0.27127805 -0.21720964 0.18546498 0.18456444 -0.045952313 0.1523293 -0.001188688 0.06484812 0.028933607 -0.07707444 0.2861775 -0.017396819 -0.08323988 0.05634774 0.19329205 0.2979112 0.05778637 -0.025207315 0.10623459 0.19339035 0.15463474 0.23399518 0.20989412 0.29103905 0.40672177 0.32287008 0.3185137 0.41376734 0.008935444 0.46802396 -0.14529559 0.38327795 -0.20981754 -0.06986384 0.32393268 0.32542157 0.1707717 0.14113927 0.2942788 0.363612 0.4195139 0.2752648 0.42524895 0.4790105 0.47373873 0.44341147 0.4874051 0.47119015 0.54883957 0.5981834 0.6022923 0.5532267 0.43922633 0.49594104 0.5492492 0.49425232 0.5004568 0.15501627 0.43597746 0.17342462 0.36911318 0.8085088 0.792946 0.22471121 0.3027296 0.66923213 0.76187474 0.7479701 0.70474434 0.23117575 0.3079409 0.49581847 0.517851 0.6279675 0.6156687 0.08282759 0.15932178 0.2528916 0.20216937 0.1762988 0.16242489 0.51794094 0.535993 0.016534321 0.07676969 0.27376845 0.085