# vtk DataFile Version 2.0
Really cool data
ASCII
DATASET POLYDATA
POINTS 7334 float
2.1795173 39.787113 10.687985
2.0076425 39.78649 11.462761
2.1559584 39.86605 12.062673
2.3149893 40.808907 10.103862
1.9896903 40.499844 10.577431
1.7324221 40.633984 11.580561
1.9905559 40.58118 12.279169
2.296825 42.054836 1.994448
2.140614 41.89241 2.5855932
2.2772596 41.58353 3.3290837
2.2338467 41.930134 4.372868
2.3092856 41.35456 10.219063
1.9489713 41.37421 10.799839
1.772744 41.402573 11.630167
1.9679466 41.41326 12.399495
2.2535279 42.480293 1.9090105
2.047868 42.445183 2.4545512
1.9455076 42.569176 3.437081
1.9765768 42.68854 4.4029183
2.2559373 42.562115 5.1766334
2.2754 41.972122 10.515661
2.092236 42.08464 11.651624
2.1905968 41.998436 12.306857
2.2683594 42.99256 1.9956044
2.1882162 43.332253 2.587662
1.9476718 43.537678 3.7040126
1.9950712 43.406544 4.4726334
2.2388406 43.348484 5.1065755
2.1902356 44.2184 3.7461476
2.1955173 44.042007 4.404242
3.4639218 33.75342 6.205309
3.4824128 34.316826 6.180534
3.313902 36.8351 2.8449328
3.3321378 36.745068 3.1815805
3.3687682 37.22873 2.5325308
3.2624958 37.38292 3.3928146
3.4431796 38.460693 3.0598176
2.5207694 39.30201 10.795585
2.7468433 39.145065 11.453775
2.9069262 39.26435 12.082431
3.4609525 39.328514 -4.1659837
2.7234964 40.105755 10.078502
2.3985744 39.660892 10.516458
2.3805442 39.40254 11.732647
2.5815802 39.526276 12.257866
3.0510674 39.78236 12.978975
3.485324 40.365875 -4.299103
3.0474257 41.000107 2.1895537
2.8328593 40.93173 2.7878969
2.96839 40.797066 3.5361402
3.084572 41.24632 4.989692
2.7081378 40.589767 13.096721
2.8030677 41.622528 1.7191571
2.456236 41.427605 3.573932
2.5393238 41.995853 5.3775206
3.2733605 41.83415 6.0517
2.6953516 41.365807 9.765868
2.6620874 41.500355 13.146516
3.0022643 42.54843 1.1620276
2.5270135 42.643894 1.5188837
2.7124345 42.358788 5.6829906
3.1500661 42.80393 6.442385
3.4707496 42.74519 7.497706
3.3095531 43.13478 9.039909
2.8959732 42.14636 9.820604
2.511791 42.249165 10.627734
2.6546702 42.452168 12.407016
2.7414427 42.019135 12.970196
2.859776 43.20117 1.3187823
2.5878727 43.25461 1.7252358
2.613683 43.769855 5.4341125
3.1608992 43.615337 8.697421
2.9728749 43.963173 9.370654
2.5869462 42.65507 11.502179
2.7127466 43.84851 2.0300639
2.6334004 44.182533 2.6569767
2.5084288 44.560234 3.4308214
2.6596951 44.63145 4.501764
2.7400239 44.49284 5.1371174
3.257826 44.832943 8.147821
3.039586 44.527035 8.530095
2.9137523 44.573177 9.523115
3.3443599 44.418003 10.907626
2.8964298 44.657 2.8876321
2.6556354 44.73985 3.62002
2.6936104 44.79884 4.219474
3.3201244 45.262226 8.029969
3.1526585 45.444984 8.450682
2.94026 45.542503 9.612654
3.092413 45.687447 10.257029
3.226302 46.17855 9.440239
3.168669 45.96539 10.106499
4.270069 31.005798 6.844193
4.310397 30.638943 7.5849643
4.3302727 30.662666 8.204607
4.1118636 31.861866 5.8901577
4.053879 31.517569 6.584584
4.1046066 31.44818 7.492572
4.257208 31.515507 8.412449
3.8780322 32.6675 5.6906953
3.7662408 32.42055 6.5652733
3.8112898 32.57811 7.21356
4.247424 32.716236 8.323998
3.9704678 33.426903 5.1706095
3.6563148 33.67564 5.63844
3.5649586 33.568653 6.618263
3.6732988 33.391685 7.013557
4.1823554 33.400055 8.19251
3.8178823 34.450275 5.1873293
3.5748663 34.408905 5.857685
3.5839338 34.428043 6.4779644
3.7730048 34.314228 7.124286
4.233296 34.473442 7.85221
4.192348 36.233658 1.7293811
3.8703072 36.085327 2.7460604
3.8231792 36.109 3.317553
4.1349545 35.45441 4.4407945
3.8781626 35.13197 5.743273
3.7812924 34.834873 6.6924243
4.2336626 37.225475 -4.1266418
4.254727 36.942944 1.0006815
3.8522854 36.83421 1.7401208
3.5113153 36.633385 2.6573505
3.557434 36.48257 3.4727852
4.0571194 36.646503 4.137827
4.1153812 37.882053 -5.030605
3.8566346 37.854546 -4.374688
3.8840053 37.77436 -3.7044346
4.0330186 38.13191 -2.879011
4.2483006 37.305386 0.9619864
3.6979833 37.57549 1.9619297
3.541439 37.16648 4.0734863
4.164054 38.92425 -5.942566
3.8049324 38.73636 -5.1567655
3.6268961 38.43669 -4.4040313
3.6205711 38.543858 -3.5405235
4.000273 38.435337 -2.697793
3.655459 38.885887 3.4184911
3.4227438 39.028538 10.943451
3.3559294 38.94214 11.284266
3.8097117 38.932693 12.212396
3.7553265 39.21381 12.8708515
4.138005 39.6749 -6.0726166
3.7608771 39.514347 -5.4246206
3.5579884 39.39635 -4.634141
3.5601997 39.495075 -3.6220896
4.0708456 39.872345 -2.636254
3.4930475 40.16167 2.8908055
3.7915628 39.90034 3.8256886
4.00072 40.093166 4.2413845
4.206659 39.79626 6.6956677
3.1794057 39.44295 10.20867
3.4429448 39.881065 13.353189
4.078793 39.7278 13.731284
4.2150445 40.327763 -5.98412
3.783502 40.595966 -5.2786303
3.5873659 40.556168 -4.4579544
3.6697636 40.51857 -3.7612994
3.950354 40.543446 -2.9014506
3.9846866 40.64645 1.8717586
3.6376355 40.875237 4.9392157
3.7231941 41.116814 6.587958
4.1760526 40.497177 7.647087
3.8017647 40.549114 13.835158
4.2608733 40.866074 -5.8967595
3.9989214 41.49068 -5.2553887
3.6535637 41.436558 -4.5424194
3.6368375 41.033985 -3.7607195
4.0703053 41.47431 -2.9129229
3.8912623 41.4853 6.667505
3.641872 41.461452 8.848099
3.5613313 41.88205 13.505072
3.8651683 41.633736 13.872841
4.096202 41.995064 -5.1148705
3.9288902 42.135555 -4.4737587
3.9195402 42.1423 -3.8179367
4.322437 42.196247 -3.104659
3.5894365 42.384396 1.0053736
3.8173525 42.559517 7.3874655
3.43124 42.136864 13.519621
3.922846 42.458755 13.745694
4.379019 43.04958 -3.763748
3.555297 43.052532 0.95982194
3.5500183 43.83409 7.989826
3.6343317 43.390507 12.708133
3.956922 43.320457 13.229691
3.614931 44.070724 1.4842324
3.4252892 43.947887 6.3278065
3.712043 44.346733 7.6449175
3.49908 44.52451 11.339205
3.7654085 43.90577 12.236278
3.323344 44.74452 2.6971912
3.5531516 44.977577 3.2207391
3.3615751 44.855274 5.4098067
3.9902043 45.07502 6.3243814
4.025578 45.70946 7.4250875
3.6962113 45.447357 11.151824
4.3157115 45.02088 12.370248
4.304908 46.848946 4.6460752
3.8428228 46.97794 5.733904
4.1387076 46.237125 6.9137754
4.2892275 46.415314 7.3540015
3.6899598 46.483295 8.647942
3.4787648 46.451355 9.621577
3.5969305 46.329304 10.262142
3.8357131 45.858402 10.982722
4.037957 47.704327 4.851698
3.8271108 47.58868 5.419111
3.9199631 47.83473 6.1742034
3.8219357 46.614826 8.865553
3.7825525 46.685936 9.577691
4.1424513 48.152027 4.987631
4.0549927 48.166615 5.446859
4.164284 48.14037 6.3614206
4.960456 30.101349 6.9792585
4.8672667 29.88345 7.5348196
4.888957 29.860271 8.32005
5.049475 30.042759 8.9902315
4.665282 31.16817 6.010526
4.533434 30.727503 6.7531567
4.498522 30.31937 7.5490084
4.586369 30.459255 8.595753
4.872223 30.570786 9.174249
4.8219843 32.08205 5.121669
4.5337358 31.668465 5.486899
4.7264485 31.77174 9.186664
5.0474033 33.054653 4.2193027
4.8236284 32.408123 9.269096
5.2001843 32.72358 9.841761
4.7946744 33.51238 4.218247
4.43752 33.674095 4.6192503
4.4621797 33.259552 8.572744
4.9756856 33.26863 9.385201
5.117618 34.707672 3.575288
4.401863 34.332764 8.043029
5.003603 33.950844 9.119282
4.646473 36.16941 0.8932967
4.6778812 35.335953 3.1130297
4.4364567 35.61589 6.6537156
4.42701 35.40212 7.2429385
4.5367165 34.865726 7.8518286
4.5238705 37.29864 -4.8134346
4.6082125 37.174854 -4.505353
4.615477 37.07716 -3.8481767
5.4168477 37.07913 -0.8508195
4.3921337 35.714924 6.161878
4.671107 35.75554 6.9772453
4.665901 38.0213 -5.7704005
4.565112 37.783073 -5.3738775
4.7429037 37.68044 -2.5703948
5.397204 37.433094 -0.8922876
5.0278826 39.039604 -6.6638947
4.7285132 38.518127 -6.1860733
4.744321 38.52775 0.7974797
4.6376233 38.663612 5.2299914
4.9102697 38.994328 7.2318635
4.896539 38.953712 10.146268
4.351067 39.090996 10.423182
4.4614053 38.924267 12.53923
4.288936 39.23347 13.253124
4.862111 39.52331 -6.6998982
4.4925814 39.60068 -6.4623475
5.161335 39.002163 -1.7896048
5.264706 39.00329 -0.10496113
4.839469 38.992397 0.77361035
4.780986 39.4326 1.2644277
4.545939 40.078415 8.341791
4.582391 39.445614 9.750771
4.5405436 39.81659 13.880025
4.9026227 39.997696 -6.7650833
4.5431795 40.468037 -6.289099
5.172399 40.606712 0.84868544
4.5032864 40.516224 7.9546013
4.5136633 40.693428 14.220577
4.5718956 41.22682 -5.9668236
4.5254526 41.65129 14.241267
5.129773 41.081905 14.661176
4.6869087 42.367104 -5.338004
4.5991077 42.184612 -2.7176163
4.494782 42.556305 0.6471308
4.531586 42.178474 14.178777
4.469345 42.69414 -4.9194536
4.835341 43.46212 -4.2695055
4.588519 43.187378 -3.6096442
4.843715 43.585934 -2.9339745
5.2236743 43.454113 -2.2574332
4.5407343 43.70667 13.360802
4.62355 43.31558 13.755472
5.2589917 44.105774 -4.203006
5.1044035 44.264828 -3.3139086
5.2215495 44.491222 -3.0044785
4.5198355 44.441643 1.3361639
4.6190014 44.572525 13.026447
4.897595 44.854053 1.826845
4.6354723 45.50663 12.213774
4.895278 45.217205 12.795462
4.512629 46.74739 4.4227133
4.307057 46.439144 10.618619
4.523362 46.194286 11.084596
4.8680325 45.739708 12.090929
4.612503 47.67395 4.317846
4.385984 47.467007 4.407128
4.373902 46.841003 9.668518
4.541815 46.675865 10.208886
4.851484 48.142044 4.4061027
4.4514403 48.383373 4.855714
4.382892 48.583508 5.7075377
4.563067 48.61547 6.551388
4.6973057 48.285183 7.3598857
5.1358733 48.205975 8.003466
4.68278 48.65499 5.094538
4.739933 48.80568 5.508581
4.8293424 48.801212 6.4523396
5.0799522 48.789032 7.1584015
5.6660237 29.320206 7.862305
5.6716833 29.403667 8.367757
6.087675 29.147333 9.617537
5.518504 29.925636 6.824459
5.314417 29.55085 7.462766
5.391799 30.06159 9.61936
6.2727504 29.846577 10.406609
5.5255632 30.984205 5.818293
5.5679054 30.455326 6.408068
5.8217025 30.487469 10.089279
5.2953396 31.550653 5.3532324
5.3961625 31.420034 5.421079
5.7276745 31.716892 9.886121
6.4109306 33.042515 -0.54272944
5.8498483 32.682354 4.1235228
6.394467 33.415737 -1.0586873
6.32751 33.56794 -0.71762073
6.4116197 33.412285 -0.049970165
6.05477 33.98972 3.070651
5.291477 33.267883 3.6743238
5.9761944 33.690804 10.1640835
6.31575 34.406887 -0.6057397
6.228346 34.849583 0.4883498
6.3065577 34.469734 1.6198249
5.8427205 34.525276 9.378183
6.432311 35.151047 -0.8921594
5.884886 35.96256 -0.24677089
[...]
POINT_DATA 7334
SCALARS features_00 float 1
LOOKUP_TABLE default
0.75125474 0.764958 0.74160504 0.59994197 0.734774 0.8386546 0.8105217 0.576437 0.573012 0.48894954 0.45129323 0.53357565 0.6566348 0.76059055 0.7225512 0.58402276 0.6034729 0.62181985 0.5552999 0.42694047 0.5130119 0.65967697 0.60703254 0.5837717 0.59907365 0.6080272 0.5543982 0.47430748 0.559615 0.527898 0.49679533 0.4940219 0.33697212 0.32646674 0.3553031 0.3462804 0.3029969 0.699333 0.66978955 0.6427345 0.55270296 0.6472686 0.724343 0.7023387 0.6681467 0.60417694 0.51563317 0.4792687 0.41971844 0.29719713 0.23752084 0.6435745 0.5474627 0.42721036 0.31321406 0.13223308 0.3967476 0.54120916 0.5299841 0.5650114 0.28410318 0.14375523 -0.075932525 -0.013138346 0.23008332 0.4725542 0.4573521 0.46720743 0.5389743 0.5598922 0.41018367 0.08223819 0.24072777 0.5098295 0.541909 0.5536494 0.5498947 0.48394406 0.41978818 0.25267285 0.26616722 0.43794107 0.4214545 0.5205089 0.526592 0.48778805 0.2872811 0.3994422 0.5440682 0.5319741 0.52619493 0.52414525 0.5067849 0.52463853 0.52695704 0.48560342 0.5097449 0.52307236 0.51314074 0.49631363 0.5270718 0.51321137 0.43503284 0.4475106 0.47505772 0.500964 0.4950459 0.42637914 0.4295393 0.48549113 0.4964739 0.48928145 0.45375496 0.26979077 0.29381368 0.2928995 0.18836576 0.47880572 0.4974882 0.54953486 0.2776814 0.33119464 0.33015656 0.3077249 0.251009 0.5866518 0.6106979 0.59232134 0.5421226 0.29402184 0.36018935 0.29818696 0.57804585 0.61479235 0.61796653 0.584831 0.5258954 0.17229925 0.5954208 0.6046468 0.5760013 0.56396574 0.5583667 0.58178604 0.567539 0.5186844 0.45078146 0.22348715 0.0898786 0.086981475 0.038992546 0.6059958 0.54692245 0.48175436 0.5309822 0.53457206 0.51896346 0.48656064 0.43886453 0.31326503 0.15969074 0.019863948 -0.03777691 0.4649911 0.50755143 0.50646013 0.5081976 0.4831797 0.43385342 0.012442365 -0.070015654 0.3917039 0.3941186 0.49168935 0.4860934 0.46198943 0.410828 0.46066576 -0.073953494 0.37320817 0.33275044 0.40965098 0.4870646 0.0799199 0.30851796 0.3226254 0.47007573 0.09808457 0.10191117 0.37278536 0.3007014 0.45834905 0.38132328 0.22966938 -0.07741174 0.16129388 0.45552537 0.39509332 0.49714166 0.45108658 0.11549001 0.21767466 0.47694948 0.51314545 0.49503917 0.46616924 0.57972777 0.5754661 0.5589372 0.48623222 0.49058443 0.5968447 0.60413855 0.5645513 0.46969873 0.4978984 0.50676256 0.48698017 0.44175884 0.4914328 0.5186087 0.5162055 0.47596753 0.34413186 0.4101671 0.44209245 0.25804728 0.3891933 0.33030707 0.27762526 0.35181856 0.39537585 0.34477258 0.1038265 0.4333859 0.34925002 0.1526643 0.12350503 0.500014 0.47842193 0.44302785 0.5221542 0.5069807 0.4947133 -0.057226375 0.49246228 0.4783197 0.5088372 0.5280319 0.40425897 -0.05042771 0.4969343 0.51155424 0.123244494 0.026497751 0.18038839 0.3214002 0.45495883 0.5317403 0.50128806 0.52013993 0.5413877 0.3101529 -0.046177614 0.0073019112 0.0029479824 0.02072207 0.27258477 0.44033784 0.50883216 0.5099786 -0.020683955 -0.010683395 0.41583118 0.47550613 0.3800601 0.40667576 0.45063406 0.35801965 0.3001817 0.34499642 0.45884573 0.4123295 0.3924878 0.32637966 0.26236892 0.3310635 0.31381273 0.3866345 0.33040044 0.27564183 0.3425248 0.37683225 0.22000387 0.42256907 0.41412908 0.45427263 0.43934238 0.42481488 0.425202 0.5161954 0.52841854 0.41921276 0.40726793 0.53083044 0.5878663 0.5968018 0.55252707 0.4777087 0.3802279 0.5905286 0.5848248 0.5443509 0.49164218 0.41505674 0.43636823 0.36943322 0.39023596 0.4482891 0.4230168 0.29766262 0.34082788 0.37275457 0.32342046 0.29800645 0.2954711 0.31126773 0.5211617 0.13910845 0.4866025 0.43554106 0.4340647 0.02702301 0.18768547 0.23253007 0.26618075 0.15471128 0.081192315 0.29352915 0.12523343 -0.017108912 0.007356163 0.36816275 0.38023204 0.3086839 -0.007235259 -0.08394206 -0.02453044 0.36402836 0.4019885 0.4005102 0.28177214 0.09878738 0.41030115 0.4201079 0.12930696 0.10265106 0.34512547 0.40241152 0.4401515 0.47449905 0.38107282 0.400969 0.46752995 -0.00043362752 -0.020299561 0.40715212 0.41809028 0.39439884 0.0043599736 0.041845933 0.41670096 0.32425183 0.15772085 0.34076834 0.37645245 0.28459504 0.34788007 0.3237368 0.35551944 0.29388544 0.34777623 0.11760697 0.2539835 0.35618746 0.31878364 0.113887 0.02124058 0.38650215 0.25434774 0.2047173 0.12991032 0.28400022 0.38940856 0.4092151 0.31453648 0.222991 0.330577 0.22263807 0.30056542 0.30905402 0.3546182 0.33771238 0.31352946 0.3551211 0.29471803 0.357618 0.38930702 0.38777995 0.35927367 0.5617682 0.526697 0.5078896 0.44618833 0.44280547 0.4714958 0.39746952 0.35761857 0.49904603 0.54058146 0.5421153 0.44419208 0.31665385 0.32349885 0.35217792 0.372505 0.35824594 0.26159367 0.3198905 0.34168908 0.34295434 0.33465546 0.13305755 0.6332383 0.6575215 0.6896689 0.25107655 0.15624073 0.16313678 0.6039988 0.64666486 0.68610626 0.6324856 0.56037587 -0.02097957 0.02406889 0.1107584 0.5101605 0.559843 0.66018236 0.69397247 0.62714714 0.58699036 0.5086121 0.42709833 0.5494248 0.6692445 0.7257508 0.48035955 0.53884697 0.35613465 0.36921442 0.23152733 0.14585166 0.21064807 0.06779882 0.17210215 0.3085735 0.22738118 0.30733112 0.22706029 0.075610645 0.18682124 0.26445323 0.028130263 0.0077632517 0.27579412 -0.0013451129 0.34559196 0.33005506 0.33893842 0.38518298 0.3114986 0.41489515 0.16370863 0.3233844 0.1476181 0.08778894 0.1944078 0.2829715 0.10688101 0.049459115 0.28532064 0.2230237 -0.012501143 -0.19356512 -0.22030288 0.34534895 0.36379102 0.18773365 0.17810875 0.15758218 0.047221176 -0.3041981 0.22281554 0.31429708 0.3912599 0.14671972 0.24267934 0.21301304 0.11587245 -0.17416337 0.108075455 -0.0364974 0.041226916 0.24684644 0.2771804 0.17818338 0.34219688 0.10908015 0.2748753 0.33339614 0.26259175 0.46546978 0.4141281 0.44955873 0.37339407 0.382257 0.3356114 0.24406558 0.7768682 0.4906301 0.4147849 0.37288576 0.73252577 0.77195454 0.80009615 0.80566 0.5426851 0.5899165 0.64758563 0.57464564 0.51448524 0.42770958 0.69628036 0.73273474 0.7616538 0.7445207 0.6708529 0.68008107 0.35203278 0.3520326 0.37487215 0.40789586 0.39665666 0.33673802 0.34421927 0.3381093 0.37707153 0.39019558 0.3692587 0.21277946 0.2691651 0.434257 0.61197317 0.65788 0.025318213 0.578336 0.6141496 0.68402827 0.7179631 -0.09128627 0.0374607 0.45296568 0.4406486 0.73288965 0.769133 0.6637421 0.6337771 0.55844164 0.3996243 -0.14669465 -0.15059114 0.39452115 0.7496871 0.794471 0.6389645 0.65117145 0.3116849 -0.14061846 -0.035558157 -0.100879535 0.21388032 0.40346062 0.5432256 0.65929186 0.778417 0.82501316 0.49036825 0.5395386 0.07721837 0.1233373 0.5214914 0.7101401 0.794833 0.40791696 0.46176457 0.4136639 0.3615892 0.22712736 0.3648055 0.52063036 0.51903224 0.45357645 0.35298428 -0.43578094 0.4695542 0.27063847 -0.035183072 0.19534811 0.0045374334 0.07903638 0.1522736 0.2252524 0.33845943 0.33742428 0.13097064 0.0866119 0.45943075 0.048525754 0.080846444 0.44187734 0.455762 0.21787709 -0.041149154 0.33807197 0.39074028 -0.11324742 0.29900426 0.31079042 0.029738747 -0.11754149 0.11299601 -0.2340126 -0.26489115 0.092556804 -0.11646272 -0.038906157 0.25392208 0.1330135 0.16291577 0.23789115 0.26409048 0.006272882 -0.1327514 0.3024357 0.2144373 0.31097 0.26611644 0.40799865 0.7627768 0.78990626 0.7716592 0.44918346 0.27647704 0.32652706 0.4985394 0.45475286 0.42391807 0.6988772 0.80702305 0.79777235 0.7362534 0.50319177 0.54718107 0.62330985 0.47634947 0.43097228 0.65723217 0.59262156 0.59847915 0.52087104 0.642033 0.66165316 0.747203 0.70194805 0.60136116 0.637784 0.62228394 0.551077 0.4960181 0.6974257 0.7025126 0.69152284 0.6399592 0.54773515 0.6156323 0.6383289 0.60854113 0.61241543 0.5835178 0.7441782 0.73531485 0.5661104 0.5691476 0.5306022 0.49348608 0.4944797 0.31715328 0.34742373 0.3572487 0.39415258 0.41117188 0.39224863 0.21764617 0.30995163 0.33478397 0.30277702 0.38978198 0.54833186 0.68130577 0.708305 -0.0458292 0.7474405 0.7477175 -0.09353585 -0.09565556 -0.15277445 0.8145846 0.57380754 0.5297196 0.46806604 0.8611709 0.5013273 0.46582973 0.8668751 0.48195213 0.2702793 0.44688225 0.7495496 0.84153634 0.86492234 0.3910349 0.32792175 0.4505188 0.4624725 0.060347464 0.4550341 0.27214807 0.42015058 -0.5473127 0.119659044 0.24689454 0.35462034 0.5299145 0.46069297 0.35506526 -0.10433027 0.18450966 0.25446174 -0.10028459 0.019892551 0.018416665 0.013172485 0.0628932 0.12091012 0.102616176 0.22908281 0.3581177 0.18402752 0.4336142 0.45355386 0.065460935 0.45974714 0.45196736 -0.13524407 0.43645522 0.41966128 -0.22755654 0.4027921 0.39142424 -0.12125845 0.028134063 0.08238883 0.16545591 0.33481708 -0.095902905 -0.11068816 -0.026448077 -0.023079619 -0.3744067 -0.10436924 -0.16269138 -0.028867919 0.011178803 0.063325085 -0.10249978 -0.0003452897 0.36335057 0.15996732 0.13759361 0.28468034 0.09875896 0.7007643 0.65706027 0.69431806 0.6676471 0.2582066 0.31435066 0.3478464 0.59655905 0.67415524 0.6559087 0.49543494 0.34302357 0.598636 0.58907104 0.4110449 0.33407056 0.3633749 0.38309997 0.39197895 0.65855247 0.64339375 0.5876513 0.59437406 0.4964955 0.43298903 0.72651947 0.6941402 0.678447 0.37594175 0.38408685 0.32693106 0.47591108 0.5459187 0.5816288 0.5583693 0.51208735 0.7888274 0.7869889 0.7665231 0.425277 0.48300868 0.4623756 0.44528586 0.32387227 0.41267908 0.42391205 0.39590678 0.3352272 0.20318685 0.26438764 0.22605243 0.2530602 0.29266378 0.4232769 0.42777705 0.49164134 0.47713605 0.50737494 0.5226331 0.5178737 0.5187593 0.52170134 0.5068575 0.43899325 0.3746186 0.21747252 0.3190837 0.38940915 0.40156415 0.36487588 0.41830167 0.42633086 0.23518613 0.12563169 0.3021833 0.31278208 0.28853193 0.24827656 0.34603816 0.50132555 0.5787561 0.6309057 0.25662848 0.1196803 0.6463461 0.6813109 0.08258557 0.76227784 0.42313617 0.47623557 0.42068458 0.015822813 0.84677494 0.33935583 0.36828837 0.8583609 0.39625618 0.29411447 0.73770446 0.8443662 0.18137039 0.2541983 0.60399425 0.4869726 0.5139195 0.49028015 0.16648866 0.45213413 -0.5374793 0.45092696 0.5150361 0.3761325 -0.20615284 -0.038221505 -0.06872961 0.13989025 -0.058911566 -0.017585926 0.17442709 0.32331106 0.36110753 0.3488002 0.29856035 0.41544923 0.2982536 0.425342 0.4074204 0.15926644 0.40289629 -0.0343747 0.39003617 0.025950182 -0.029888622 -0.19952372 -0.274346 0.08102325 0.1191594 0.16934924 0.30594063 0.28854418 0.2875987 -0.203427 -0.64334893 0.115419686 0.1261886 0.18044135 -0.10646105 -0.16500163 -0.019317744 0.15562719 0.19792715 0.21474208 0.14888546 0.15024157 0.3829737 0.1431388 0.029185724 0.059953623 -0.10888462 0.51502633 0.46193147 0.37937796 0.009592824 -0.026111979 0.40339664 0.44557375 0.5933035 0.6003228 0.47204024 0.42048222 0.14843011 0.03235386 0.023516573 -0.052125968 0.59353757 0.5924285 0.4430227 0.33637273 0.17027384 0.61963385 0.32819757 0.3263076 0.60123205 0.52687275 0.54256237 0.46156624 0.7665492 0.6021487 0.35214052 0.36114872 0.46274567 0.5439817 0.52489835 0.4818351 0.8330099 0.8463317 0.79714096 0.7268753 0.101632275 0.2942266 0.20606162 0.20512295 0.1968 0.230907 0.325964 0.20456123 0.25512904 0.27619183 0.32901493 0.39018905 0.3567666 0.41767138 0.41229343 0.33496746 0.36016104 0.48852152 0.49172512 0.44499496 0.47620398 0.46862176 0.5183444 0.49960664 0.45664984 0.50021064 0.539724 0.50763613 0.5028257 0.5036239 0.48759457 0.52330667 0.4946422 0.46723837 0.4616536 0.46752346 0.4725607 0.45574248 0.44215155 0.47893018 0.5019256 0.48054683 0.38497204 0.28594166 0.16557866 0.10407865 0.20338878 0.34219402 0.35480136 0.38404793 0.44252306 0.059488207 0.27883518 0.29999477 0.23682569 0.44434434 0.50852567 0.52950656 0.20027909 0.24834022 0.4979329 0.57020515 0.5958337 0.6879927 0.1695972 -0.037008096 -0.1257368 0.7473577 0.1972535 0.6470132 0.75560534 0.25524622 0.20957592 0.14745693 0.46769476 0.70634353 0.18933907 0.51808673 0.5419052 0.5806465 0.5837606 0.10546219 0.481714 -0.010420155 0.3434523 -0.30240482 -0.21217549 -0.27340335 -0.29446083 0.49783176 0.3773126 -0.19292592 -0.060446747 0.10134557 0.45567894 0.38561165 0.20391169 0.23964322 0.28966248 0.44071326 0.4085539 0.35854858 0.2657675 0.349179 0.26688522 0.5194816 0.590804 0.1066105 0.20386702 0.3621243 0.55454284 0.6137788 0.100826845 0.048396677 0.15895551 0.39066446 0.51693237 0.62219036 0.6351124 0.029211901 0.26068598 0.061597474 0.0772786 0.048991073 0.16403846 0.12016907 0.028358318 0.27006307 0.4137439 0.572141 0.037535556 0.022908729 0.15464497 0.07389391 0.32030544 0.110445544 -0.0042025 0.5807117 0.5336304 -0.11779713 0.61814946 0.5434752 0.37515944 0.5013918 0.5914701 0.52598274 0.43603396 0.47601977 0.1624518 0.05467327 -0.0148302615 0.31614095 0.55593187 0.15324776 0.27398854 0.2608737 0.19826958 0.0045052804 0.3613769 0.45551974 0.7785553 0.72798914 0.66714877 0.664619 0.0113658905 -0.09671442 0.063152574 0.29959682 0.04584782 0.20621385 0.14397354 0.05279473 0.14447512 0.21517113 0.22246183 0.2578753 0.38430345 0.30804205 0.34933105 0.362509 0.4315171 0.4027437 0.4427723 0.41249976 0.45578146 0.40860087 0.42504582 0.4262898 0.4200037 0.37983096 0.40165502 0.38689825 0.39839 0.34005597 0.51375824 0.495261 0.4054953 0.4630951 0.5139006 0.0691151 0.002130935 0.030840214 0.13552397 0.38517177 0.20682147 0.2919364 0.1574659 0.28810176 0.36542967 0.18348919 0.3955616 0.47959965 0.002449803 0.4066704 0.47075188 0.5764742 0.12774283 0.09438331 -0.046892677 0.28403264 0.58253264 0.13301249 0.1383308 0.08906812 0.3684324 0.52115065 0.5478785 0.5798437 0.5456328 -0.09912287 0.50587666 -0.22119519 0.41684383 -0.25055593 -0.23629259 0.3865906 -0.24195388 -0.24897534 -0.11230065 0.53269005 0.52186203 0.093976915 0.19260384 0.29076904 0.52731335 0.28409535 0.49578422 0.47277465 0.11599775 0.40643904 0.44499576 0.21331936 0.3424186 0.4869141 0.5425332 0.59769416 0.22386923 0.15239131 0.6056112 0.62331825 0.28475267 0.6101383 -0.17531684 -0.03588944 -0.0019697305 0.24851926 0.39426148 0.52697706 0.56270903 0.09883701 -0.2619019 -0.1862218 -0.014361693 -0.0191953 -0.033696413 0.05275236 0.07179677 0.4146179 0.5297158 0.37852138 -0.17925383 -0.2145373 -0.079475656 0.6241474 -0.3562268 -0.3635369 -0.20703217 0.65242064 -0.1827666 0.679616 0.6225945 0.54821396 -0.049475014 0.5619917 0.39869836 0.2552719 0.09234504 0.104665324 0.03855656 -0.19410476 -0.1362513 0.33798108 0.2030046 0.27155608 0.22091635 0.57482946 0.5692551 0.38552058 0.027504582 0.0022097286 -0.0070306435 0.35554028 0.40618435 0.6445251 0.6191146 -0.020807154 -0.07601088 -0.07512461 0.41136998 0.44893256 -0.058603264 -0.019289266 0.36092782 0.46439642 0.23711409 0.36954123 0.10168932 0.21981575 0.071173444 0.13672674 0.192893 0.24454863 0.29624942 0.36307684 0.2750608 0.36644423 0.28324604 0.26963797 0.39911434 0.2558327 0.17202285 0.34516084 0.37823406 0.40627757 0.23894396 0.3379835 0.35625392 0.49053913 0.4741276 0.403247 0.23350197 0.19194342 0.44204402 0.47767857 0.13947707 0.15291163 0.35656723 0.10889634 0.11342092 0.22496898 0.041050225 0.29533884 0.32998455 -0.07517014 0.32082328 -0.14435542 0.14640263 0.190213 0.04867897 0.010808945 0.15772793 0.12994021 -0.15350701 0.11446043 0.5323026 0.5516008 -0.0029595569 -0.12230878 0.4872918 0.48943383 0.48229265 0.47345716 0.17453 -0.11887209 0.4327552 0.370346 0.38729513 0.31501487 0.20840527 -0.41866755 -0.18119815 0.5105369 0.481838 0.25329018 0.2623983 0.094402514 0.2703679 0.33523154 0.54313266 0.5433172 0.34536338 0.5368818 0.54586774 0.313532 0.5076921 0.45724386 0.30942667 0.025049135 0.2560341 0.45592207 0.55287063 0.3468211 0.58700585 0.45799166 0.33451372 0.4758296 0.44782674 0.31016293 0.26762795 0.44625133 0.15556192 0.2288807 0.3540568 0.41520804 0.50007886 -0.3301398 -0.12732917 0.004711151 0.077634975 0.61923456 0.58322835 -0.077703044 -0.03990099 0.6500871 0.6632859 -0.020453922 -0.029196963 -0.008263066 0.6935624 0.6655214 -0.12570018 -0.10236338 -0.07977925 0.6366402 0.51864207 0.15357782 -0.0061083883 0.08281812 -0.087153904 -0.1258708 0.37444624 0.40571043 0.1992119 0.30635828 0.33811992 0.290807 0.49158573 0.5280802 0.40854156 0.31006587 0.16452521 0.023798754 0.015675005 0.37042975 0.25408924 0.15691549 -0.07012636 0.44387472 0.4369849 -0.0443664 0.0024463544 0.48531297 0.47223398 0.498147 -0.11751132 0.3459154 0.2248535 0.2187086 0.093898505 0.082774855 0.1612149 0.33468008 0.38917312 0.30655006 0.361198 0.32904395 0.37510216 0.35374808 0.31359327 0.28900185 0.2474905 0.3890087 0.25185066 0.17641532 0.12450749 0.35214752 0.3897117 0.24072239 0.35343385 0.34314874 0.33807766 0.40090227 0.4119063 0.3660565 0.36532104 0.3903712 0.36800313 0.4135563 0.38754693 0.24895294 0.23728758 0.23625098 0.19680896 0.37051836 0.15064397 0.14094256 0.20153777 -0.04220792 0.111669436 0.113768056 0.044496976 -0.01819108 0.19250792 -0.02109544 -0.035419624 0.14989294 0.15934761 0.04149871 -0.06718315 -0.042025633 0.15083559 0.11180115 -0.08632752 0.16292982 0.12630814 0.1142678 -0.017022792 0.041979592 0.050499372 0.021737441 0.061228156 0.0889816 -0.16106728 0.012592394 -0.12717839 -0.03527668 0.4559684 0.37068123 0.16927549 0.23256335 -0.2166892 0.29443204 0.32980108 0.54573584 0.52264214 0.16894332 0.34135145 0.32290018 0.522015 0.32385644 0.44158947 0.1867519 0.14757895 0.07000108 0.17622593 0.3340593 0.24121818 0.34909174 0.33588666 0.4031266 0.3616124 0.29991657 0.3282483 0.30261582 0.33778185 0.25728184 0.27750984 0.40138963 0.0017797947 0.22820051 0.55842924 -0.03447257 -0.043555506 0.61505 -0.15497513 -0.0059725344 0.6587931 0.62688917 -0.02746962 -0.11454109 -0.092275366 0.19788674 0.34059992 -0.096219994 0.6019437 0.51398194 0.30012658 0.09680834 0.059867576 0.25118464 0.44793865 0.47387773 0.4855652 0.41975608 0.5195128 -0.13966934 0.33053607 0.52779543 0.5544517 0.52190244 0.5173974 0.3958 0.29223293 0.20896892 0.08164023 0.38996822 0.3646281 0.3199332 0.25462326 0.18263409 -0.08602037 0.47067088 0.45518166 -0.2764022 0.4779005 0.09193443 0.028248992 -0.2531696 -0.37760437 0.39783666 0.14229755 0.07326221 0.0037037674 -0.24914932 0.22575206 0.37784344 0.2127348 0.43176743 0.072933435 0.45260212 0.17787519 0.44848967 0.40390396 0.3061216 0.33536243 0.358694 0.3472959 0.21609542 0.35278413 0.35079828 0.3220812 0.20751014 0.3567777 0.36690158 0.40185142 0.38196576 0.38249588 0.4013908 0.42326674 0.4432648 0.42394206 0.43702865 0.30539912 0.38145214 0.40663484 0.35615265 0.21478958 0.26544264 0.23412445 0.31959265 0.28080916 0.14456885 0.064087376 0.15825035 0.21318904 0.022175184 -0.09606592 0.017730251 0.027525954 -0.11778801 0.02052638 0.045372926 0.028872102 0.07231137 0.03503084 0.16509421 -0.17692484 0.16304758 0.091918506 -0.018419791 0.056196503 0.06457025 -0.30332083 0.024378318 0.055086788 0.06891236 0.13703129 0.2131716 0.061164316 0.028476171 0.24002929 0.29616344 0.48074192 0.37623543 0.3397213 0.28260973 0.28551668 0.50485754 0.4808284 0.22621022 0.4077644 0.23143768 0.1816063 0.2455632 0.61761034 0.65405715 0.27338377 0.21429726 0.47926036 0.5876169 0.6431104 0.33627105 0.39321923 0.5681834 0.6040964 0.32067007 0.15053995 0.25222424 0.18663736 0.21176115 0.17291819 0.16664478 0.25747502 0.20023847 0.47158968 0.10355933 0.23447827 0.5228082 0.4564314 -0.21471687 -0.041887373 0.55074453 0.39575982 -0.14318854 0.28507578 -0.05124531 0.1484429 0.112076394 0.3360136 -0.13222373 0.31355244 0.44288075 0.5400714 0.48479718 0.45955905 0.20184459 0.5545515 0.57612896 0.60785234 0.50498354 0.3294733 0.40708888 0.047296457 0.018195428 -0.08135539 -0.22832969 0.43317622 0.021940902 -0.0901808 -0.13804123 0.42826855 0.038020816 0.0034151673 0.35402003 0.41036782 0.16231807 0.3048098 0.45956767 0.18915243 0.44548512 0.388601 0.23415476 0.2845265 0.31817478 0.49589306 0.36138374 0.3426787 0.57202923 0.45624065 0.41183805 0.38945052 0.5869744 0.48504788 0.4270406 0.428214 0.49538898 0.43174964 0.42799014 0.45214343 0.4529087 0.6076435 0.6382266 0.62331784 0.37645286 0.40707567 0.25275987 0.3101359 0.32598504 0.1979737 0.057176907 0.06471425 0.16236605 0.1373722 -0.15368617 0.34284055 0.47183794 0.15541792 0.15476057 0.41849172 0.39473075 0.10985728 0.36267498 0.08930571 -0.30157408 0.09846034 0.12919024 0.19176479 0.10009941 0.25755283 -0.014650873 0.16724688 -0.038961686 0.102164805 0.10598367 0.02