# vtk DataFile Version 2.0
Really cool data
ASCII
DATASET POLYDATA
POINTS 8169 float
18.473803 8.932514 41.74829
18.402815 9.690986 41.69751
18.375082 9.78134 42.33466
18.28807 10.556395 41.748848
18.232424 10.64706 42.410526
18.34167 10.6828575 42.86115
18.300293 11.074168 41.915497
18.297068 11.192293 42.390427
18.348318 11.176044 42.86761
19.07375 8.060439 41.01122
18.970045 7.9876213 41.52203
19.042234 8.0557165 42.146145
18.970816 8.5284 40.81973
18.654757 8.487835 41.48784
18.777748 8.619235 42.307926
19.16532 8.791409 42.993366
18.88589 9.337327 40.845154
18.522469 9.410769 41.37621
18.529932 9.450907 42.372032
18.77677 9.74853 43.07723
18.841484 10.496319 41.072037
18.482475 10.603083 41.46609
18.633335 10.537437 43.210503
18.914892 11.233775 41.241955
18.585577 11.329969 41.68287
18.523401 11.5581045 42.523186
18.726223 11.379302 43.169468
19.010654 11.9317045 41.90568
18.845932 11.952835 42.500557
19.044926 11.935862 43.082363
19.891619 7.385654 41.652607
20.115242 7.426919 42.109543
19.609896 7.8298554 40.87758
19.476 7.60403 41.57326
19.726383 7.6220856 42.193497
19.980776 8.019303 42.86237
19.697847 8.578713 40.39693
19.366512 8.491453 40.54726
19.67947 8.461528 43.09881
19.797777 9.228332 40.363197
19.244287 9.664727 40.658047
19.373245 9.420312 43.46277
19.799345 9.897026 43.88459
19.419588 10.408675 40.770752
19.763077 10.544937 44.028683
19.490171 11.340195 41.09137
19.218615 11.653661 41.39363
19.572771 11.558559 43.772537
20.425032 12.081896 53.605595
19.893753 11.7411 41.201443
19.653334 12.233243 41.828133
19.278255 12.28312 42.482025
19.492132 12.267715 43.202614
20.00892 11.960765 43.88453
20.415756 12.706935 52.946667
20.381727 12.560638 53.349045
19.936323 12.608459 42.650078
20.44134 13.056804 53.528233
20.605803 7.4083633 41.09656
20.557505 7.2948236 41.447292
20.515776 7.345959 42.08819
20.430374 8.103532 40.42684
20.353127 7.7990704 40.71006
20.659225 7.6271644 42.53025
20.425934 7.8069324 42.80356
20.292078 8.444423 40.35646
20.718748 8.416464 43.35375
20.533468 8.957238 43.708652
20.053886 9.014488 40.333954
20.539164 10.095796 44.539223
21.105082 10.04944 45.134007
20.08279 10.151921 40.53205
20.982288 10.982973 45.213997
21.248861 11.019017 53.293762
20.37884 11.311568 41.018513
20.924446 11.489011 45.456882
21.088633 11.891711 45.837856
20.986929 12.019799 52.347256
20.779043 11.836858 52.715355
20.641716 11.740273 53.25501
20.822412 11.928376 54.18628
21.090942 11.993276 54.688824
20.263714 12.461793 41.98988
20.584732 12.30197 44.19871
20.935959 12.565449 45.324867
21.188185 12.626674 45.970284
20.928242 12.415408 52.309937
20.566446 12.373923 52.678204
20.466698 12.720986 53.81313
20.69077 12.515945 54.176674
21.069101 12.762893 54.86026
20.48583 12.757212 42.54567
21.018127 13.07451 43.60135
20.884518 12.919918 44.51512
21.039139 13.008416 45.67036
21.346504 13.233104 46.193848
20.622835 13.127103 52.8752
20.616041 13.3393345 53.52609
20.71843 13.167224 54.2478
21.093582 13.032521 54.880733
21.397602 13.934325 44.406693
21.355665 14.0039015 45.43822
21.228064 14.0255375 53.049366
21.003195 13.877568 53.46591
21.353989 14.510927 54.574787
21.161825 17.778702 42.00733
21.078875 17.866705 42.46061
21.157196 17.839865 43.080513
21.083847 18.440535 41.882713
20.89398 18.612125 42.41128
21.064545 18.658003 43.24101
21.10739 19.125898 42.03574
21.025753 19.218405 42.630825
21.12577 19.160913 43.053253
20.899103 25.094532 31.997522
20.635992 25.118479 32.96366
20.905611 24.66534 33.300922
21.051622 24.824903 34.166042
20.945436 25.566511 31.807404
20.628914 25.500088 32.488113
20.605331 25.588156 33.569885
20.907415 25.520363 34.202904
20.992548 26.27906 31.831665
20.591843 26.116758 32.5338
20.708445 26.510824 33.430332
20.770138 26.25652 33.937923
21.267237 26.977236 31.89212
21.007511 27.233444 32.56255
20.962748 27.43111 33.50956
21.029196 27.295576 34.01685
21.221006 27.979496 33.576874
21.275105 28.012636 33.969093
21.136673 7.38017 41.648933
21.259096 7.809434 40.88134
21.41741 7.5503774 41.724075
21.446747 7.705474 42.41244
21.611036 8.169995 43.10636
21.073456 8.900115 40.40392
21.331978 8.436325 43.37598
21.85481 9.215567 44.48808
21.02431 9.423631 40.353287
21.433922 9.469297 40.62152
21.858541 9.736452 45.37977
22.22916 10.26195 53.719963
21.604313 9.950305 40.64852
21.632313 10.525884 45.921787
21.673512 10.905433 52.88429
21.75844 10.75829 53.44492
21.610115 10.974487 54.160805
22.270456 11.185474 55.294987
21.795708 11.379346 41.140747
21.605692 11.44908 46.30275
21.199932 11.9199505 52.270264
21.879267 11.799727 55.129936
21.789848 12.535826 41.716705
21.628824 12.838135 46.56246
22.003902 12.36948 46.835552
21.652222 12.540548 52.005447
21.338821 12.588121 55.011223
21.402012 13.171387 43.684814
21.5364 13.223235 46.378872
22.356277 13.859038 46.933865
21.619116 13.161743 52.194954
21.480524 13.6654825 55.139816
22.052612 13.272339 55.76483
22.269825 13.833033 42.90215
21.979849 14.721669 43.92566
21.950994 14.509157 44.25699
21.60645 14.4712925 45.470173
22.106657 14.430876 46.699123
21.626915 14.087496 52.893303
21.683525 14.545955 53.72192
21.571592 14.118211 55.37252
22.292728 14.979796 57.183292
22.188559 15.963702 43.708508
21.801708 15.691425 44.79117
21.901747 15.691276 46.431576
22.191341 15.760493 47.326843
22.43341 15.58708 47.938267
22.04708 14.928573 53.70554
22.018925 15.211179 54.5859
22.00273 15.343044 55.586037
21.974419 15.607767 56.695187
22.082933 15.606198 57.331654
22.299871 15.626169 57.8371
22.103695 16.955116 41.1773
22.083166 16.741121 41.736008
21.47775 17.2318 42.147846
21.663986 17.111027 43.73846
22.103556 16.608229 44.432407
21.889242 16.267496 45.362164
22.07219 16.308283 46.342667
22.15321 16.565414 47.225662
22.333044 16.682087 47.90953
22.12615 16.2004 55.56513
22.075281 16.597729 56.48454
22.139994 16.380178 57.400345
22.282995 16.26708 57.81305
22.099344 17.681223 40.89401
21.409243 17.32672 41.878963
21.47698 17.633251 43.394535
21.905151 17.508469 44.245342
22.410215 17.023 45.965797
22.409895 17.212158 47.316364
22.262379 16.899134 55.823463
22.265224 17.019182 56.559677
22.253874 16.886711 57.163845
22.178267 19.239742 36.42195
22.234087 18.825476 37.50917
22.146954 19.052443 38.272327
21.843328 18.685051 41.291595
21.435658 18.376171 41.42283
22.253904 18.38861 44.215122
22.441143 19.75632 30.515303
21.999308 19.935846 36.062138
21.86285 19.723722 36.535774
21.77849 19.50315 37.517437
21.962362 19.267054 38.21511
22.139372 19.706413 38.8074
21.526787 19.226482 41.63277
21.402267 19.425613 43.20725
21.923088 18.957489 43.855576
22.463636 20.124495 30.571169
22.43783 20.36404 30.987638
22.018398 20.176596 35.93167
21.6926 20.398989 36.589645
21.548334 20.509836 37.460487
21.737404 20.222466 38.33218
21.877285 20.575796 38.89021
22.253534 20.823093 39.72321
21.453707 19.705406 42.57649
21.3964 19.670683 42.934914
22.043688 21.295322 36.044815
21.718578 21.57252 37.08148
21.72035 21.469799 37.40357
21.668074 21.525091 38.517506
21.83982 21.557793 39.167084
22.1664 23.11935 32.30097
22.334036 22.65855 33.212994
22.24075 22.202423 36.684155
21.987225 22.285667 37.601334
21.929016 22.25752 38.43251
22.183136 22.283434 39.189144
21.845415 23.705116 34.307957
22.32947 23.629673 34.817646
22.312555 22.666603 38.69483
21.983763 24.672638 31.255856
21.566982 24.51354 31.682306
21.44798 24.63352 34.61811
22.30704 24.389582 35.32223
21.65009 25.688993 31.255405
21.61026 25.74239 34.838936
21.836536 26.486624 31.332228
21.521397 26.408606 31.471489
21.586006 27.164543 31.824678
21.417383 27.580889 32.350582
21.37762 27.516308 34.38664
21.810484 27.559788 34.718555
22.077272 27.97125 32.14132
21.830706 28.26467 32.714687
21.584515 28.378368 33.504368
21.746908 28.210806 34.1819
21.998446 28.58693 33.38802
22.04565 28.637518 33.899506
23.31277 4.0841327 52.853348
23.17466 4.0890994 53.42766
23.220589 4.1517615 54.245724
23.319925 4.9612937 52.296524
23.212212 4.617893 52.653885
22.916763 4.6650233 53.540745
22.920012 4.74665 54.33641
23.14458 4.8806005 54.914726
22.911232 5.7045617 52.81856
22.686262 5.3063545 53.79879
22.78864 5.4519506 54.413197
23.107315 5.38166 54.999638
23.358114 6.5625134 51.96054
23.04249 6.3442583 52.571674
22.940128 6.3646026 53.430283
22.810158 6.0972595 54.158855
23.235603 5.9057236 55.000935
21.814775 8.014057 41.1175
21.851986 7.959265 41.625736
22.27391 8.162809 42.40251
21.934849 8.208039 42.988712
23.362402 7.0139966 52.03793
23.265259 7.2874427 52.640846
23.014988 7.0413637 53.535255
23.166616 6.9460535 53.905556
22.359901 8.8074255 41.152008
22.202732 8.359286 41.44626
22.779095 8.473408 42.835873
22.15246 8.492573 43.333145
22.287878 9.112157 44.304962
22.64321 9.634114 41.097507
22.334558 9.614267 45.479195
22.389189 10.02085 45.912594
22.368855 10.18997 53.86457
22.443651 10.312311 54.51013
23.47524 9.712182 58.152344
23.38634 11.119248 36.55862
22.479317 10.665488 46.3975
23.03722 11.182045 51.79795
22.742254 10.696791 55.221195
23.441229 10.273145 57.86285
23.44125 10.314651 58.209534
23.37689 11.5059595 35.967754
23.2723 11.652951 36.440968
23.36717 11.572011 37.197628
22.028801 11.25482 41.049564
22.806791 11.531369 46.998028
22.709429 11.576656 51.843636
23.417868 12.332543 35.994713
23.305752 12.212866 36.323547
22.627928 12.585003 47.23879
22.5207 13.545235 42.594105
22.419458 13.94426 47.103638
22.589132 13.282862 52.167885
22.736553 14.021454 56.486156
22.492987 14.573398 47.35692
22.887964 14.702336 48.12176
22.510593 14.243452 52.775425
22.72953 14.765899 57.6034
22.769936 15.034288 57.969563
23.179373 15.8674555 40.545162
22.497635 16.262526 41.656902
22.459824 15.195693 47.75949
23.08052 15.6408 49.299133
22.716316 15.73944 58.17319
22.931568 16.797989 40.10629
22.69551 16.558708 40.577484
22.620049 16.105413 48.470657
23.223211 16.692238 49.534092
23.397366 16.720232 50.109753
23.069574 16.263128 53.773415
22.75749 16.447412 54.627953
22.715633 16.37348 58.14153
22.906706 18.35616 37.413948
22.930874 17.510958 39.762302
22.509727 17.537775 40.380116
22.66556 17.465263 46.461372
[...]
POINT_DATA 8169
SCALARS features_00 float 1
LOOKUP_TABLE default
0.8667022 0.8136407 0.78390515 0.7869018 0.7746559 0.75109386 0.779172 0.7726362 0.7493316 0.9678786 0.9633409 0.9009423 0.9184201 0.922601 0.85669225 0.7524594 0.84157217 0.8406409 0.794523 0.72653687 0.7679894 0.7833625 0.72066617 0.7507969 0.7679348 0.7546892 0.7070091 0.7345393 0.7266818 0.67266655 0.9327588 0.83840114 0.98167956 0.9646245 0.8604951 0.71224153 0.87065166 0.901827 0.6964239 0.7903793 0.7948344 0.6332514 0.5160241 0.7309776 0.5231432 0.70746106 0.7306201 0.5633334 0.736342 0.661049 0.67854625 0.6820832 0.59382784 0.44304878 0.7909688 0.7669268 0.5725235 0.7343154 0.9406597 0.90361655 0.8002822 0.90866756 0.96253586 0.7059422 0.6796775 0.8603921 0.5350255 0.47730917 0.79629713 0.3925439 0.3955431 0.6883275 0.37530744 0.6911209 0.5985085 0.36327982 0.35003304 0.78437406 0.793643 0.76519954 0.6513144 0.5594733 0.58242786 0.3023599 0.3002754 0.3059237 0.79066753 0.80352694 0.7074542 0.65018845 0.5285645 0.47014654 0.25275093 0.22796568 0.2749319 0.26091856 0.77865887 0.7181993 0.6311161 0.5277219 0.16079853 0.22352643 0.66532695 0.66879296 0.5047312 0.5653992 0.6132362 0.601259 0.6532886 0.69909763 0.68243665 0.72325456 0.7307174 0.7150936 0.7074113 0.691307 0.59967864 0.53613126 0.71265244 0.7396691 0.6769341 0.61289227 0.72937846 0.77013 0.7778651 0.7231582 0.737315 0.83670723 0.850539 0.81793034 0.8556329 0.8413542 0.8053099 0.87837887 0.7604642 0.66592646 0.5228526 0.7700696 0.4733491 0.3247782 0.69729674 0.66958725 0.3767294 0.43116108 0.5850117 0.4312873 0.63780403 0.57423234 0.54346395 0.3635952 0.48811126 0.39363986 0.75538564 0.4339575 0.3271895 0.26621622 0.29771012 0.68799114 0.4793241 0.19376977 0.25429904 0.16465193 0.72357523 0.47619715 0.26742035 0.07243845 0.10584469 0.13014582 0.20374328 0.15533416 0.6366852 0.49314862 0.4319114 0.51051825 0.066192985 0.038443826 0.18718751 0.21560526 0.20370403 0.34678027 0.25820357 0.37531936 0.57185787 0.62589324 0.64535034 0.28109974 0.30750334 0.4720087 0.32211882 0.032139733 0.05802065 0.20483902 0.25591436 0.2558873 0.36077127 0.5908512 0.69245195 0.700526 0.3263955 0.4688515 0.5198214 0.26586884 0.17381652 0.25841597 0.44744375 0.6040791 0.67937493 0.41068786 0.44676086 0.44885325 0.55610883 0.56823933 0.40216678 0.5910549 0.4038598 0.46216822 0.5219993 0.4816513 0.49343866 0.68728065 0.6808672 0.5704303 0.58904886 0.5469984 0.3931524 0.5072766 0.5918146 0.5588914 0.5645915 0.5144031 0.68150264 0.6767583 0.43273252 0.57841164 0.6007383 0.6178223 0.5812776 0.43412858 0.27388796 0.5229335 0.59793055 0.5982307 0.5509329 0.38013685 0.37273818 0.5453414 0.60874784 0.63332045 0.48159617 0.43024355 0.6406713 0.6095481 0.6442153 0.6735074 0.7266121 0.8257605 0.8099811 0.8021804 0.8135322 0.8559106 0.8493564 0.8292845 0.84300685 0.8350254 0.69959056 0.72980285 0.75464106 0.6356814 0.6765022 0.7263145 0.723205 0.6860974 0.61973906 0.68958116 0.65401053 0.63110757 0.47890753 0.535983 0.56634974 0.60622245 0.5553577 0.7809112 0.71492434 0.5892483 0.5191139 0.4190519 0.39300483 0.4703235 0.48838282 0.67875427 0.69109654 0.470627 0.42372233 0.30301428 0.5691817 0.3397802 0.3636806 0.40223122 0.3676131 0.49534562 0.51180845 0.38560575 0.24460217 0.30487505 0.44090587 0.4894263 0.53150475 0.5336524 0.48237205 0.46810767 0.35958192 0.3905608 0.5265999 0.535689 0.24341506 0.018128023 0.14277293 0.527182 0.19888145 0.12400043 0.11563459 0.52204907 0.48292398 0.54631984 0.077280566 0.20681861 0.16690183 0.1997384 0.64052355 0.080538854 0.1373404 0.23318434 0.119966574 -0.00014812127 0.031554267 0.15096681 0.6934589 0.28841 0.02675749 0.17938799 0.22970466 0.25595716 0.23174255 0.13565403 0.06268547 0.07271696 0.11467743 0.450733 0.58788335 0.6841161 0.70796454 0.6054487 0.5922508 0.54927826 0.31256574 0.37411046 0.2499473 0.22794814 0.24300458 0.23670053 0.0967474 0.15428585 0.13679296 0.5202901 0.5901953 0.6485814 0.6415969 0.6252104 0.5985979 0.543176 0.30109146 0.3980415 0.1912305 0.20230544 0.20776325 0.22941212 0.18503317 0.66981614 0.6238156 0.576239 0.5515265 0.3897323 0.2216846 0.31038266 0.5075791 0.01761666 0.44358468 0.30809438 0.323632 0.6383923 0.52336985 0.18851323 0.4757508 0.06830795 0.23847298 0.50392175 0.48189119 0.5473726 0.3700941 0.51766735 0.4857065 0.55808514 0.57593024 0.58469737 0.62317216 0.63871 0.68690133 0.77060175 0.8101129 0.84113777 0.8174312 0.8006525 0.83817434 0.83627665 0.82722884 0.72235477 0.7653113 0.6785172 0.7323843 0.76088065 0.7782458 0.5982084 0.66447234 0.71753955 0.6526203 0.5305495 0.5605935 0.5183388 0.542464 0.3612915 0.3244043 0.5889797 0.4350938 0.34835088 0.23791242 0.2555015 0.07304677 0.45112517 0.53035176 0.545628 0.3988623 0.41358614 0.22555286 -0.06573774 0.16460548 0.24903911 0.18978262 0.52258027 0.5443677 0.44642198 0.48345146 0.4832903 0.4101714 0.3516007 0.41073424 0.23888984 0.05458663 0.18518522 0.5336484 0.47321343 0.51035434 0.4357251 0.28739685 0.1667773 0.09601618 0.12533376 0.45315376 0.4865831 0.4324317 0.49290588 0.35191476 0.24871975 0.046695728 -0.19765879 0.2589404 0.10264451 0.19750412 0.36550343 0.3262024 0.4300319 0.36213648 0.15579489 0.077889524 -0.407343 -0.049000114 0.1160361 0.25766262 0.25016385 0.16275987 -0.093933776 -0.08548094 0.110107645 0.47112668 -0.065211564 0.613038 0.5521451 -0.14610377 -0.0019714609 0.65903115 0.5716702 0.54432917 0.13545577 -0.07440131 -0.008490447 0.66809833 0.6097102 0.5917028 0.5763915 0.4878328 0.13211624 0.21485277 0.020261275 0.12296134 0.060768545 0.4328994 0.5516579 0.5831015 0.623781 0.65502405 0.19101927 0.15573037 0.17636079 0.18834528 0.65953225 0.20560527 -0.06574802 0.10326511 0.14464162 0.17218067 0.16117579 0.12955742 0.25685996 0.32363346 0.29296556 0.24637532 0.6303193 0.14248382 0.40980008 0.36356884 0.3836878 0.3573282 0.31985942 0.60709345 0.5904679 0.39228675 0.3398667 0.42316702 0.36997026 0.32942432 0.3799835 0.41775393 0.45845544 0.46548453 0.4741028 0.47083312 0.46063244 0.07531087 0.368173 0.4927883 0.4900205 0.501745 0.49838048 0.47858617 0.28123683 0.5306579 0.53394186 0.51723295 0.6084869 0.5924691 0.6665814 0.74590003 0.8061227 0.83333105 0.82011175 0.8046769 0.7881253 0.83619833 0.82903737 0.81935865 0.73048115 0.7806134 0.7794618 0.3395908 0.34527093 0.58577764 0.6587244 0.77453554 0.7399397 0.34426504 0.3492059 0.5166444 0.31660804 0.4783574 0.5520269 0.30368215 0.104572974 0.2868419 0.53453153 -0.1443513 0.09986744 0.54562706 0.54192907 0.3742605 0.34527028 0.25135505 0.04474879 0.0636292 -0.19431317 0.5484797 0.5399748 0.29607403 0.24421151 0.34675896 0.23294191 0.10226425 -0.20584056 0.5293782 0.52186334 0.5534421 0.3180918 0.29256693 0.25624698 0.3181915 -0.12428461 -0.24458387 -0.27593774 -0.1160015 0.46868306 0.46021226 0.3215093 0.30249178 0.24927348 -0.24017775 -0.033553377 0.24272817 0.31104696 0.2902055 0.19868325 0.24022713 0.28715533 -0.30935633 0.028785504 0.24021183 0.09004153 0.15388674 0.22514285 -0.19426697 -0.3287802 0.045016423 0.43767163 -0.16123836 0.50414234 0.58229375 0.551584 0.4072996 0.02201648 0.005311573 -0.1754091 -0.18052584 0.50901973 0.55653167 0.60302615 0.12308726 -0.07871172 0.21810332 0.3712809 0.5693403 0.5955724 0.6161796 0.5968064 0.61533856 0.14343876 0.12675573 0.5680944 0.5883113 0.091490224 0.14763515 0.3005688 0.2754898 0.24491261 0.5738957 0.52591085 0.34062788 0.3113692 0.33967423 0.3060783 0.4302533 0.38893223 0.43084836 0.50296146 0.52190804 0.49959064 0.42130053 0.45308912 0.46095008 0.29472598 0.58631337 0.5529969 0.5554279 0.53518116 0.47855407 0.53257465 0.56424993 0.62587637 0.61671233 0.6273787 0.6381246 0.69075155 0.7309553 0.707608 0.6595712 0.6624876 0.80760074 0.80350685 0.76247346 0.5290199 0.52363765 0.49200082 0.51389974 0.50078994 0.45640296 0.39041388 0.4805978 0.47991967 0.44787508 0.36869317 0.29406574 0.3458473 0.35536888 0.3534997 0.3360827 0.32653528 0.68756086 0.74438924 0.7761788 0.76431775 0.3131919 0.338178 0.3444863 0.34449112 0.30573487 0.6528556 0.7541475 0.7288208 0.21588957 0.28977403 0.33910787 0.34977454 0.3318188 0.29260388 0.37121853 0.39198914 0.6896704 0.69817114 0.31660762 0.29443836 0.20301126 0.2462098 0.28427356 0.5360639 0.3647208 0.3291605 0.25434807 0.1460433 0.31170356 0.242183 0.15064478 0.1577244 0.34424683 0.52241266 0.29849142 0.2506218 -0.0706543 -0.04757145 -0.060601227 0.06467889 0.5377914 0.5603029 -0.01265949 0.030082205 -0.16974114 -0.076013334 -0.05499194 -0.0068523474 -0.35847425 -0.18261681 -0.19195923 0.54365706 0.5403019 0.50667775 0.43823692 0.25800937 0.16810353 1.4469726e-05 0.1102878 0.04629112 -0.19658941 -0.32702416 -0.36384192 -0.23353161 -0.20939551 -0.22613442 -0.22225413 0.52930844 0.5896253 0.60019875 0.5417335 0.4364404 0.27809167 0.23040153 -0.19870764 -0.25213504 -0.29168314 0.50415856 0.57967836 0.60593325 0.5797865 0.4086299 0.32213095 0.4330072 0.5191313 0.5640513 0.5552004 0.46218315 0.3133737 0.33129215 0.37998873 0.42283353 0.50100845 0.48638946 0.39022315 0.22725308 0.1961496 0.28405917 0.080908954 -0.25893256 -0.27321374 0.5172426 0.3553819 0.15282333 -0.17823167 -0.2540622 -0.26087797 -0.4011607 -0.21942829 -0.5065191 0.52621996 0.5609404 0.10077208 -0.1634103 -0.22622779 0.49340284 0.51991475 0.188502 0.15839647 0.50940365 -0.037753403 0.5410342 0.52180916 0.0714505 0.03256803 -0.034584925 0.52050424 -0.056165516 0.16402444 0.15154828 0.091666415 0.17258441 0.13691446 0.50004965 0.22015262 0.04764426 0.26789013 0.14495747 0.21599582 0.20129234 0.43680292 0.28695437 0.36447996 0.22480199 0.11817345 0.4957227 0.37970334 0.40791702 0.248524 0.59145784 0.6231591 0.47475034 0.46413136 0.52722293 0.48950878 0.6921294 0.6173414 0.57809854 0.7272819 0.7090856 0.6898844 0.6631695 0.61373556 0.59766245 0.52980065 0.44864815 0.54563904 0.5566074 0.5362319 0.46692693 0.3897277 0.33329648 0.29643318 0.4878276 0.5084929 0.29892844 0.271937 0.23913191 0.44340986 0.46629035 0.25441292 0.25000885 0.29926515 0.26442966 0.7312733 0.74863493 0.7526352 0.80467236 0.7743902 0.6601426 0.5864572 0.08530478 0.2730677 0.6593896 0.73602206 0.7233136 0.7931868 0.8409628 0.83005214 0.70509315 0.571005 0.49438483 0.3940882 0.392888 0.33163363 -0.035048384 0.035661526 0.11815652 0.23928767 0.14199737 0.12177566 0.6677512 0.78275955 0.76233363 0.60520726 0.48958826 0.35949343 0.36867213 0.39755243 0.37726474 0.32428735 -0.07271032 -0.08889328 0.03561205 0.112707846 0.1372291 -0.04706213 0.116219014 0.5914765 0.643057 0.6264399 0.5036845 0.34554604 0.2655285 0.33155218 0.36779386 0.3214342 0.15324391 0.053269062 -0.17898309 -0.24781269 0.043166157 -0.16020869 0.47939253 0.56155145 0.5588739 0.5446258 0.11853278 0.14390613 0.22856677 0.11373242 -0.052063897 -0.13684401 -0.13594097 0.027083065 -0.15364209 -0.25148484 -0.15165511 0.57290196 0.06123895 -0.16443105 -0.1712502 -0.08525013 -0.13440992 -0.1501157 -0.13881506 -0.29503813 -0.40742528 -0.2956848 0.5559175 0.5468063 0.5459998 0.26213044 0.20995168 0.5257108 0.51982296 0.48015535 0.54106915 0.4414767 0.46920225 0.37132773 0.37868357 0.39832732 0.13548432 0.19723317 0.32020572 0.37625623 0.19145565 0.09652343 0.33230674 -0.20239751 -0.28776574 -0.27573282 0.18887673 -0.039349817 -0.17887112 0.42819217 0.27210942 0.37980834 0.45388597 0.41442794 0.018390112 0.21319452 0.3299098 0.44943112 -0.01665409 0.4944667 0.4474795 0.015236994 -0.045194007 0.39932352 0.27762702 0.08449483 0.16519552 -0.2171421 -0.0320651 0.33538532 0.050985754 -0.17460497 0.037998065 0.18000469 0.051144227 0.45710623 0.2616482 0.26620167 0.019196693 0.20487997 0.3517536 0.42414838 0.3339345 0.2292725 0.23844008 0.24404077 0.2199215 0.6736503 0.41691935 0.8207674 0.5176973 0.82751757 0.7970238 0.7496913 0.7098628 0.66374505 0.7997788 0.7790014 0.7381158 0.66507626 0.67010057 0.62269914 0.5336174 0.501052 0.63648534 0.64539254 0.63621473 0.60100675 0.45382386 0.43923622 0.4571711 0.58843106 0.60570896 0.3681437 0.37547845 0.41496944 0.40144837 0.24341588 0.1994291 0.10992467 0.73359394 0.7090778 0.5861169 0.4609464 0.2428424 0.19027539 0.7627835 0.77551395 0.74527454 0.6045788 0.52210295 0.47906637 0.014764134 -0.041320562 0.5274488 0.5796565 0.6582502 0.6882514 0.76576763 0.3640632 0.24444143 0.36217028 0.323607 0.3050936 0.30994627 -0.08209567 -0.16616416 0.046448752 0.35798773 0.3880417 0.52745485 0.72108436 0.086631015 0.268867 -0.06910224 0.63824403 0.12117515 -0.113986254 0.148364 -0.016052105 0.48317793 -0.12463313 -0.23004502 0.5472807 0.56144416 0.10845912 0.31045997 -0.3183996 0.5298192 0.53663296 0.45313263 0.38656336 0.4971652 0.20783137 0.39396662 0.2943843 0.258402 0.32865542 0.3718997 0.24906594 0.17064959 0.23074463 0.21820366 0.19481726 0.29312038 0.30134916 0.1376932 -0.18384758 0.25903428 0.2657752 0.33450222 0.26827917 0.057735417 0.37891215 0.43679196 0.47024047 0.23711304 0.39924777 0.45367682 0.3779464 -0.039749548 -0.19209325 0.05016674 0.11997707 0.04452096 -0.08619198 -0.1117935 0.024700487 -0.019369327 0.006903462 0.29302466 0.5157792 -0.18254024 0.045736946 -0.13194439 0.52988553 0.16197771 0.09578776 0.06852219 0.04334692 0.14601138 0.28087687 0.31596342 0.47032535 0.49993044 0.5392689 0.597895 0.32074475 0.19478168 0.25618756 0.41299412 0.44901207 0.49508303 0.5320256 0.7224468 0.33583626 0.8824582 0.56253874 0.46126044 0.85505927 0.85701203 0.70588905 0.63073003 0.8285574 0.7970512 0.759485 0.6772423 0.6887816 0.6384843 0.573468 0.55107534 0.54733694 0.6368669 0.6623069 0.51501596 0.49410087 0.56052476 0.42204264 0.41354072 0.3350548 0.013314523 0.09806817 0.6332253 0.5094848 0.42958003 -0.024708733 0.70707035 0.6915026 0.2532613 0.3020369 0.13953462 -0.12448301 -0.030180618 -0.05516418 -0.042417496 -0.039856706 0.7175144 0.62320685 -0.067540355 0.20014146 -0.070640415 -0.040554877 -0.06863627 0.03351143 0.64739156 0.04719366 0.22775206 0.003449183 0.31856477 0.28400522 -0.21071574 0.123150736 -0.06807562 -0.04961405 0.10574544 0.1831387 0.44812483 0.50256217 0.48861647 0.22005633 0.2295349 0.17877865 -0.016107772 0.3784253 0.38515225 0.23851156 0.25394958 0.30823392 0.25733548 0.28394982 0.19927719 0.2739841 0.22339647 0.16149981 0.16648531 0.08803516 0.16127473 0.15207931 0.3966582 0.39745185 0.486088 0.018099885 0.56478226 -0.025556996 0.54432815 0.574213 0.33509824 0.032535374 0.4991043 0.5165376 0.45730484 0.38913858 0.30203184 0.34831905 0.5024982 0.48249605 0.37358284 0.16648155 -0.04334897 -0.03159845 0.19325864 0.16883555 0.070017025 -0.11594476 0.09440619 0.008484399 0.24654722 0.33837977 0.3451083 0.024959847 0.112912335 -0.061932668 0.52780545 0.062308706 -0.21904194 0.09321724 0.02049059 0.052271172 0.5578941 0.5658686 0.33069944 0.37020367 0.5063673 0.55845666 0.7305773 0.43592817 0.23907095 0.52284455 0.49296844 0.6046745 0.5084479 0.54215384 0.873083 0.51603746 0.9200407 0.8827089 0.73554105 0.6313009 0.8505909 0.818743 0.7543787 0.6594928 0.63906384 0.6047224 0.570302 0.5761399 0.5826763 0.6179689 0.6393454 0.5482913 0.5930616 0.5021873 0.42881966 0.35033673 -0.08776045 -0.03762603 -0.047696553 0.3548357 0.23292306 0.093733564 -0.14118752 -0.051793702 -0.057575315 0.31004894 0.44598156 0.61154145 0.43273956 0.12208207 -0.05305713 -0.10682374 -0.16322821 0.33108312 0.46324706 0.073376544 0.042201556 0.04463984 0.5670821 0.10519132 0.369686 0.61089414 0.16566648 0.17838861 0.041167844 0.21369115 0.06291365 -0.009252913 0.21521512 0.12853685 0.18981187 0.15699969 0.12142058 0.13766155 0.55749047 0.5218079 0.48601323 0.27839097 0.20438966 0.17467552 0.31099588 0.55857044 0.5074382 0.47517186 0.45296496 0.32880458 0.21135388 0.40742525 0.38675833 0.474728 0.43270272 0.37229723 0.325598 0.24578968 0.47063962 0.39967608 0.37994546 0.33355787 0.224411 -0.09657652 -0.2357628 0.5807985 0.36777598 0.35676602 -0.1068269 -0.07085704 0.6088935 0.0908198 0.622586 0.6128003 0.42414546 0.41219503 0.27433184 0.49772805 0.63370895 0.6032448 0.5348825 0.51458454 -0.19552732 0.24487276 -0.20661528 -0.2048615 0.30406687 0.5526061 0.54761505 0.1648764 0.28822833 0.55325174 0.5238564 0.44462597 0.27868035 -0.010047644 -0.11354011 -0.10524052 0.20739752 0.1838163 0.45917132 -0.094605 0.35974053 0.43956518 0.35308847 0.13344982 0.15290761 0.19913079 0.094702736 0.23264101 0.5244601 -0.017313672 -0.1954568 0.47836104 0.48550814 0.14930049 0.5718211 0.5519072 0.28947994 -0.002251219 -0.01021789 -0.16988531 0.5167539 0.5697906 0.7635988 0.65818715 0.5619719 0.55489707 0.51950586 0.7958381 0.86494744 0.65755486 0.5942867 0.5884389 0.6138588 0.6171583 0.56620145 0.90168786 0.8514503 0.7654259 0.53612053 0.5253453 0.50143534 0.5318867 0.5472728 0.49436086 0.5576402 0.5385535 0.42328283 0.47387508 0.2044476 0.26535225 0.31977826 0.2437349 0.15119256 -0.03987926 -0.06920248 -0.010685392 0.115026355 0.14690676 0.11773762 0.09342153 -0.018206403 -0.09003562 -0.095168285 0.16086565 0.42447543 0.59363055 0.5993434 0.13349587 0.14098227 0.5670558 0.51617503 0.21925089 0.4005122 0.7887356 -0.0046688505 0.2996974 0.4768058 0.70452845 0.73185074 0.5688012 0.5518858 0.06787704 0.6798283 0.52799207 -0.03112118 0.14434128 0.6361701 0.03445655 0.45218998 0.5989988 0.5805261 0.5443679 0.3697483 0.12990609 0.019970573 0.013296677 0.6035669 0.5874921 0.31658933 0.39445364 0.59020257 0.56406486 0.52221036 0.5104461 0.50625765 0.45342094 0.39631605 0.561076 0.55960226 0.30693713 0.3885206 0.132352 0.6293731 0.36053497 0.35487095 0.29815984 0.20534617 -0.16184671 -0.16733478 0.633757 0.2971115 -0.5139614 0.67308486 0.640455 0.42842007 -0.46000934 -0.36852393 -0.32140663 0.5829784 0.6382822 0.49884778 -0.08419104 -0.16200691 -0.19229373 -0.22274368 0.54908967 -0.029335275 -0.0639943 0.12302046 -0.065617606 0.5507921 0.5468973 0.5000748 0.27459747 -0.16468832 0.42855713 0.25816965 0.263542 0.16299427 -0.011566959 -0.22520865 0.06451605 0.33117932 0.18923143 0.090448126 0.04155413 0.05052592 0.4718337 -0.009854043 0.09967038 0.1822075 0.4753675 0.47081813 0.35052744 0.19477853 0.17607838 0.27101558 0.28823367 0.2765442 0.5174906 0.5394921 0.034964718 0.10741595 0.19059816 0.53396606 0.5085004 0.47211438 0.39897722 0.20276494 0.12811527 0.17468616 0.5232987 0.28516692 0.566464 0.47672248 0.49826628 0.39614403 0.59538066 0.6047488 0.5508979 0.5155324 0.4993955 0.39618158 0.38621756 0.45335466 0.45508748 0.26771832 0.45309222 0.40192443 0.24226032 0.31324333 0.36512172 0.33798355 0.29032603 0.021060161 0.030267574 0.24839586 0.21067654 0.16347262 0.20703305 0.2416775 0.27669254 0.25152156 0.09044764 -0.04668907 0.27867174 0.13105093 0.080056176 0.5833465 0.62262106 0.61047196 -0.08781494 -0.1030661 0.5715493 0.5309526 0.008225123 0.46882778 0.71745723 0.69193166 0.63034654 -0.101993434 -0.09383953 0.2856424 0.5360466 0.6765458 0.8082545 0.8731408 0.8521555 0.7070427 0.71411407 0.6610589 0.5801695 -0.15354383 0.06681985 0.78323925 0.6760396 0.6465502 0.60379004 0.3343689 -0.056567628 -0.07811808 0.73297346 0.7045415 0.6304113 0.55035734 0.43673265 0.21468815 0.051204756 0.6658876 0.5778619 0.40598923 0.059490994 0.6264768 -0.007340797 -0.079087146 -0.064150244 0.17305584 0.5788052 0.57108116 0.47851706 0.037254464 -0.060358766 0.5985099 -0.24129409 -0.12571827 0.135219 0.5967529 0.032307908 0.20941326 0.277496 0.5144666 0.5652738 0.54955983 0.49729502 0.11895612 0.28114837 0.3574813 0.60456204 0.30062348 0.2454199 0.37900424 0.6505399 0.6465647 0.30049413 -0.44597587 -0.46614164 0.6131432 0.65686256 0.68000734 0.24448067 0.06849118 -0.53524786 -0.5927315 -0.4855572 0.5492343 0.64177746 0.68134284 0.6920316 -0.12518719 -0.23357989 0.6322094 0.07005912 -0.0063940138 -0.12079707 -0.0137922615 -0.2854225 0.11098608 0.13658643 0.50738186 0.018471047 0.058382824 -0.16039462 -0.30803272 0.021008559 0.213263 0.50065607 0.4903012 0.40127748 0.14479586 -0.08792326 0.12551643 0.054298192 0.48944962 -0.14540598 0.13360806 0.24573898 0.20709908 0.17555317 0.04668963 0.16478322 0.12148647 0.18310852 0.5880305 0.5664934 0.13732536 0.21521987 0.4997775 0.54235196 0.38050202 0.14384402 0.6244968 0.20627016 0.19515401 0.19697857 0.5629844 0.5474224 0.44266802 0.3273637 0.69289565 0.2859677 0.19790661 0.4006316 0.60599905 0.31780046 0.2775219 0.29758093 0.51820964 