# vtk DataFile Version 2.0
Really cool data
ASCII
DATASET POLYDATA
POINTS 8118 float
30.13672 9.989891 -3.9640887
30.120146 9.763636 -3.5148757
30.195389 9.796976 -2.8446674
30.07668 10.564044 -4.132274
29.842892 10.556957 -3.4759252
30.036926 10.47868 -2.740836
30.340279 10.659054 -2.1783998
30.234793 11.842231 -4.070278
29.950857 11.330216 -3.6501782
29.990194 11.241853 -2.766368
30.318579 11.023938 -2.170555
30.129509 12.447608 -3.5801666
30.189426 12.268836 -2.4597704
30.214123 13.054583 -3.2519238
30.38645 13.239324 -2.7249262
30.42296 15.30151 -5.718076
30.73145 9.269896 -4.009275
30.761053 9.052836 -3.4546864
30.88904 9.115678 -2.655656
30.653013 9.7175255 -4.305588
30.402512 9.363727 -3.4211679
30.43275 9.522726 -2.703016
30.97761 10.026634 -1.8289505
30.84355 10.181713 -4.60139
30.488438 10.216026 -4.434632
30.754461 10.665322 -1.8853428
30.8515 11.235185 -4.5587697
31.074135 11.676258 -4.515036
31.001276 11.480503 -1.5703747
31.204683 11.642743 -1.3924685
30.798548 12.62546 -4.2601395
30.590982 12.552329 -2.0087438
31.03321 14.129984 -6.503868
30.488985 13.659351 -3.045898
30.625746 13.313907 -2.4030352
30.8129 13.217646 -2.0267048
31.0644 14.548627 -6.92243
30.72713 14.681108 -6.441792
30.530811 14.959814 -5.590823
30.600683 13.736993 -3.1776109
30.848722 13.790917 -2.550147
31.00192 15.558888 -7.1413417
30.601267 15.509434 -6.4129224
30.55305 15.592427 -5.6151004
30.673283 15.448145 -4.8813763
31.05206 16.077375 -6.986308
30.91447 16.31637 -6.407562
30.85169 16.235485 -5.489552
30.992807 16.043186 -4.8009024
31.174034 15.879272 -4.354582
31.231682 16.659157 -6.2036605
32.06198 8.47224 -2.9440868
31.546267 9.011537 -4.068958
31.460394 8.641511 -3.3631766
31.566145 8.689073 -2.7650907
31.327255 9.766138 -4.6118174
31.562044 9.513337 -1.6828166
31.320465 10.3225355 -4.687775
31.848381 10.625043 -1.1734655
31.314558 11.640435 -1.4620507
31.635426 11.464018 -1.2946271
31.498028 12.273335 -4.5667596
31.604021 12.554984 -1.3356202
31.754967 14.06934 -7.034834
31.306597 13.172395 -1.5889802
31.558733 14.874132 -7.394779
31.89447 14.365341 -2.817231
31.73308 13.754119 -1.8284633
31.814898 15.698202 -7.5863686
31.4132 15.620276 -7.4434843
31.980232 15.266923 -3.7551112
31.860641 15.992096 -7.558837
31.549128 16.265852 -7.2109585
31.509743 16.412405 -4.703556
31.28811 15.81933 -4.272532
31.811365 16.716314 -6.887404
31.678713 16.800396 -6.463563
31.602629 16.82067 -5.617214
31.570234 16.706991 -5.0201163
32.31954 8.447682 -3.290772
32.9176 8.186371 -2.6948137
32.794247 8.33764 -1.9215662
32.453533 8.809683 -4.023285
32.142574 8.548816 -3.4460382
32.449837 8.908647 -1.6150624
32.942764 8.955899 -1.047939
32.846115 9.56303 -0.85080504
32.477516 10.708682 -4.731287
32.720303 10.831155 -0.8173942
32.538517 11.965572 -4.745519
32.973377 12.560938 -5.4114037
32.6655 12.323388 -1.1312805
32.60822 13.603037 -6.7962236
32.339375 13.1668005 -1.3955629
32.214527 14.970567 -7.5729613
32.163383 14.519683 -2.537627
32.469257 15.50319 -7.668023
32.90193 15.092634 -2.9596252
32.416515 16.3325 -7.3149443
32.654045 16.41292 -4.0713735
32.57731 16.720486 -7.055382
32.750965 17.154322 -6.282961
32.578896 17.194468 -5.5189857
32.835983 16.896471 -4.690701
33.618187 8.346508 -3.7366533
33.536057 8.152822 -3.2687173
33.581547 8.0012245 -2.5376878
33.761578 8.177704 -1.4116257
33.62871 8.828464 -0.7822063
33.03504 9.349689 -4.38512
33.274837 9.562046 -0.64185184
33.816887 9.715058 -0.44289327
33.9574 11.489748 -4.6941733
33.75003 11.585888 -0.69624704
33.4714 12.449257 -5.1543584
33.181896 12.134414 -1.0059357
33.516563 13.768898 -7.159092
32.887894 13.582945 -1.6917642
33.35037 14.920873 -7.6684403
33.33369 14.464412 -2.5679169
33.301575 13.727211 -1.8673527
33.046528 15.822042 -7.6235375
33.920414 15.885401 -7.588219
33.4168 16.391197 -7.303133
33.906162 16.538368 -3.887316
33.473854 15.756282 -3.1638846
33.153538 16.703272 -7.1592455
33.41777 17.317558 -6.125264
33.603622 17.336224 -5.595949
33.4135 17.055096 -4.828131
33.508217 16.660786 -4.120204
34.874126 7.9959917 -2.9849415
34.439083 8.0331955 -1.6903156
34.616127 8.301123 -1.2353185
34.57165 8.926581 -4.2494974
34.331726 8.765121 -0.71953213
34.384476 9.581612 -4.553016
34.357395 9.441295 -4.4220905
34.670437 9.533085 -0.5351605
35.433506 10.073956 5.3752694
34.34965 10.627794 -0.6074221
35.411175 10.517987 5.0427885
35.394722 10.566178 5.46
35.43197 10.356176 5.9526997
34.82453 12.147018 -6.219168
35.37537 10.858322 5.211871
34.258553 13.056239 -6.795317
34.59896 13.651467 -7.189144
34.451042 14.710919 -7.5819697
34.302536 15.206463 -7.6758447
34.630997 15.607185 -3.0501504
34.338963 16.424936 -7.051366
34.701153 16.317875 -3.670974
34.264954 15.833341 -3.0838258
34.17733 16.678665 -7.0411077
34.209713 17.108978 -6.298029
34.265373 17.185156 -5.4167542
34.383476 16.915998 -4.7243166
35.48632 8.100705 -3.2631667
35.170216 7.9037127 -2.458872
35.351185 8.604498 -4.0698195
35.18367 8.561222 -1.0479034
36.201286 9.333958 4.956229
36.15223 8.967222 6.57575
36.191624 8.977633 7.3231187
36.358875 8.915983 7.837943
35.898117 9.369404 -4.7214
35.356884 9.745995 -0.54770017
35.684 9.805667 -0.40378237
35.851616 9.699328 4.8791065
35.64153 9.696085 5.5112996
35.747036 9.693653 6.427324
36.050827 9.539503 7.391432
36.274742 9.546987 7.8471494
35.36931 10.890163 -0.13466933
36.101234 10.4073715 4.1490536
35.561485 10.468964 4.8298297
35.601364 10.503513 6.256807
36.05155 10.228361 7.246025
36.34677 10.108639 7.80525
36.01386 11.955048 -6.2017956
35.731815 11.093536 4.868291
35.681812 11.208506 5.5126963
35.872307 11.170453 6.148188
36.273743 10.966619 6.81983
35.589176 12.708321 -6.7929993
35.81191 12.620274 -1.1271019
36.10633 11.706545 5.277004
35.323673 13.554212 -7.26619
35.775856 13.396609 -1.9830165
35.017677 13.804338 -2.3387432
35.478825 15.443446 -7.1352296
35.29762 15.81948 -6.944501
35.438503 16.479923 -4.485668
35.341637 16.152159 -3.780962
34.97735 16.699589 -6.1896224
36.393223 8.069846 -1.6376524
36.830112 8.375912 6.787725
36.973614 8.3336935 7.432248
36.61228 9.082464 -4.3668494
36.339634 8.845612 -1.0018606
36.6309 9.291746 4.7537875
36.68777 8.929012 5.311822
36.552826 8.617424 6.6315923
36.629467 8.55423 7.4980946
36.749027 8.821041 7.989324
36.656425 9.789094 4.1394515
36.67346 9.410387 4.333552
36.702374 9.459791 8.185404
36.861977 10.870332 0.124691814
36.49459 10.455919 7.652856
36.735165 10.243757 7.956942
37.045383 11.980282 -6.5605164
36.479145 11.336773 -5.563745
36.442234 11.078184 3.9007983
36.543983 11.400517 6.5780706
36.65871 11.050996 7.0401597
36.76049 12.779486 -6.9173098
36.725433 11.780298 4.220968
36.68316 11.844381 4.613919
36.59938 11.804975 5.4793057
36.709896 11.691775 6.141921
36.973007 13.110892 -0.9257809
36.23945 14.146403 -7.5050426
36.605427 14.621414 -2.8508556
36.91989 14.066135 -1.7016815
36.278736 15.20052 -7.3882523
36.29293 15.466367 -3.445958
36.710068 14.708962 -2.863238
37.425354 15.858195 0.7002126
36.564426 15.969791 -6.957724
36.76144 16.224348 -6.098696
36.38801 16.456816 -5.0985246
36.11004 16.414839 -4.543174
37.46208 16.058588 0.6306703
36.53525 16.550148 -5.423155
38.27836 2.9683285 -3.929398
38.238792 2.705223 -3.2940795
38.15884 2.6837738 -2.446428
38.154182 2.8647528 -1.870585
38.306267 3.4779098 -4.2650785
38.07477 3.259547 -3.4833884
37.96218 3.452029 -2.426197
38.205437 3.4344072 -1.5357251
38.33671 3.4809718 -1.2620181
38.386745 4.013986 -4.4034543
38.232544 4.5618362 -2.231352
38.238216 3.946054 -1.7604198
38.259007 6.5982223 -1.7319608
38.312466 7.14996 -1.0175688
38.353134 7.227208 -2.7956808
37.45204 8.342582 6.0699615
37.61247 8.203541 6.572645
37.445034 8.183922 7.43662
37.63278 8.343964 7.973096
36.90229 8.774503 -3.748068
38.004517 8.569315 -3.4158463
37.349686 9.009488 -0.8898704
37.90706 8.962624 4.5874553
37.43692 8.547737 5.5111966
37.486855 8.679439 8.245171
37.98532 9.537792 -4.368513
37.110992 9.86127 -0.41270334
37.30776 9.414687 8.460009
37.56674 9.451164 8.5497
37.59999 10.76243 -5.787247
37.699436 10.382737 -5.594757
37.282963 10.889883 0.20697284
37.762127 10.84772 3.6205506
37.53232 10.308 8.2704735
37.631523 11.992141 -6.6285024
37.88143 11.620816 0.49422652
37.387806 11.510362 3.7458372
37.410427 11.095994 7.4102015
37.577015 10.762866 7.867509
37.467743 12.503391 -6.953439
37.72053 12.084993 0.48183608
37.46296 12.028511 4.763974
37.458973 12.05676 5.1965823
37.364994 11.732325 6.5012636
37.69112 13.561379 -7.500966
37.072395 14.410528 -7.452451
37.32841 14.563937 -2.3872623
37.93614 14.792816 -0.71083164
37.734615 14.537381 0.33874634
37.908012 14.397465 1.0905496
37.93122 14.943004 -7.637773
37.527447 15.289177 -7.392735
37.77144 15.285129 -3.475584
37.707783 15.1186905 -2.7965345
37.677776 15.577106 -0.4099494
37.65815 15.528955 1.3720255
37.884094 15.607904 1.8766968
37.9457 16.203747 -6.446115
37.434643 16.338348 -5.636443
37.193714 16.339626 -4.779016
37.618332 16.011568 -0.21273126
37.60989 16.549377 0.5608122
37.77669 16.364216 1.457962
37.916264 16.349775 1.8661264
37.98568 17.058233 0.41464585
38.16817 17.205746 1.369875
38.205975 16.925 1.8073043
39.08292 2.175279 -4.1955757
38.89575 1.9560678 -3.46704
38.738552 1.9598522 -2.5629182
38.85122 2.1397731 -1.7451762
38.755238 2.9610643 -4.6721454
38.7374 2.677905 -4.3788276
38.459415 2.3636029 -3.339336
38.572754 2.524862 -1.535426
38.794346 2.7380373 -1.2194886
39.072247 3.739338 -4.9961224
38.505356 3.4505727 -4.5286803
38.64135 3.481463 -1.1049087
38.846394 4.0695353 -4.749475
38.558826 4.189504 -4.382513
38.793304 4.441584 -1.2097528
38.61668 5.3678837 -1.5470978
38.864243 5.845036 -1.0623145
39.239166 6.0839314 -4.034642
38.46066 6.32523 -1.4873214
38.544003 6.690192 -1.044761
38.596786 7.7005305 -3.4454823
38.516712 7.788844 -0.3510778
39.000633 7.792397 0.20473808
38.531178 8.269499 5.7370477
38.61577 8.141621 6.7184596
38.381195 8.118196 7.475045
38.251987 8.196644 7.883059
38.43533 9.260524 -4.143936
39.127907 8.561728 0.29229555
38.69237 8.833341 4.812583
38.660114 8.642201 5.246442
38.34379 8.713341 8.354483
[...]
POINT_DATA 8118
SCALARS features_00 float 1
LOOKUP_TABLE default
0.79364794 0.8074118 0.7990972 0.78638816 0.84009373 0.79053664 0.6595988 0.77186894 0.8314361 0.7534943 0.63193154 0.7488981 0.6414736 0.6217151 0.58980495 0.8284714 0.74435437 0.74309313 0.72713995 0.74673873 0.7805519 0.7747201 0.60318804 0.6959178 0.74282575 0.5794283 0.6565409 0.6158353 0.52415764 0.50419027 0.6665638 0.589345 0.7320287 0.5281806 0.5730589 0.5717727 0.78898865 0.83032894 0.76907647 0.5097816 0.5197512 0.8083246 0.8739283 0.81730956 0.63691574 0.81565684 0.86000407 0.79554224 0.68075705 0.5600162 0.8378711 0.58342487 0.6577377 0.65555835 0.6352654 0.6547562 0.6017767 0.60477424 0.45229554 0.49928918 0.459315 0.49834254 0.5154072 0.6607306 0.5541891 0.72517645 0.38263914 0.49820694 0.70013064 0.74720645 0.34183812 0.700631 0.7496552 0.6408224 0.52728677 0.7490362 0.7922077 0.7790548 0.6988113 0.56225646 0.5488812 0.59835255 0.53617543 0.57697684 0.600695 0.5653127 0.5085859 0.28984106 0.40929517 0.17431498 0.045116562 0.42233634 0.38198513 0.47000074 0.64363855 0.3598093 0.62772626 0.26693514 0.6683101 0.45921987 0.6789185 0.7277914 0.70825684 0.5745193 0.49079597 0.51664865 0.5609139 0.59160286 0.53969944 0.4395675 0.491108 0.4484216 0.0052957833 0.34679976 0.021886036 0.38105565 0.3800239 0.38465947 0.5487653 0.22705454 0.2919388 0.59326583 0.5310893 0.59821993 0.38051397 0.286705 0.636289 0.6864668 0.63182235 0.5488868 0.43273818 0.5395007 0.58146197 0.5303877 0.38419524 0.4971183 0.26578042 0.3064403 0.4091367 0.83452487 0.35285798 0.85106015 0.84543085 0.83279324 0.11614262 0.84900105 0.20246586 0.30285078 0.4409911 0.47806475 0.20499048 0.5350039 0.32112062 0.2555953 0.5671642 0.61945754 0.5432924 0.43906534 0.47019738 0.5782648 0.37330967 0.44119704 0.75452137 0.8259318 0.8651432 0.88817775 0.16749178 0.30751187 0.24721953 0.8105709 0.8235723 0.8406677 0.8601078 0.87636775 0.21537912 0.8882894 0.8541641 0.8255929 0.8097936 0.8233754 0.12012509 0.87946594 0.83912474 0.80495614 0.7528142 0.17821918 -0.10889921 0.84492046 0.26593032 -0.12662898 -0.037839964 0.39418265 0.42645127 0.33037877 0.28208274 0.50715244 0.36996144 0.77356 0.83087105 0.10114552 0.26099044 0.6519066 0.6384771 0.7874366 0.8592273 0.8887336 0.73737156 0.6373913 0.8843037 0.0041570812 0.77450275 0.8035764 0.12997162 0.10760914 0.9454085 0.71480757 0.6992252 0.17653349 0.8000438 0.7994565 0.7771412 0.712831 -0.14828828 0.2981114 -0.06569248 -0.21252859 0.34687102 0.10826712 -0.06057156 0.42699197 0.39009142 0.29707775 0.28641856 0.28254628 0.42785382 0.2817457 0.64437425 0.6956864 0.73010695 0.67949057 0.61254513 0.67510605 0.6689234 0.56617856 0.5331464 0.5591978 0.36831802 0.4812373 0.16384673 0.13077766 0.1822384 0.5943962 0.6667415 0.79210085 0.82305074 0.07288219 -0.15954004 -0.0030799806 0.37844202 0.50733864 0.85478795 0.048368543 0.035024054 0.8617084 0.83600914 0.13104467 0.12202285 -0.076980166 0.79706067 0.7725669 0.13075489 -0.16677561 0.7136847 0.62364995 0.6822183 0.16565439 -0.109219834 0.60587513 0.59465504 0.58628786 0.23592807 0.28100333 -0.10023921 0.22095953 0.384437 0.41292828 0.27956408 0.33901748 0.067436144 -0.027371146 0.37739027 0.42618805 0.42007816 0.26701874 0.21305162 0.1878888 0.40301615 0.42622197 0.41906905 0.40034622 0.4217651 0.41452622 0.39729124 0.6058359 0.65034866 0.7144319 0.6893356 0.5989654 0.61414933 0.68159425 0.6718699 0.6087104 0.5382027 0.60065365 0.50209874 0.5200676 0.5253411 0.324137 0.15585384 0.09405623 0.046821274 0.13934071 0.1390099 -0.032163173 0.09672864 0.15206692 0.41441584 0.5712386 0.6837255 0.7323899 0.028562948 0.06277402 0.27821478 0.3240869 0.7481602 0.747217 0.12475896 -0.18638778 0.3424535 0.6774471 0.7794201 0.13686126 -0.27338856 -0.021253914 0.7050735 -0.246283 0.49162316 0.57283324 0.201909 0.5201985 0.43268058 0.42710084 0.4005627 0.4570896 0.23317945 0.13332647 0.36035192 0.23961261 0.32841992 0.28015336 0.18212995 0.09854675 0.047483504 0.22688738 0.34648573 0.40913796 0.39982802 0.44491965 0.3363551 0.368636 0.36365852 0.4960998 0.6064613 0.6394983 0.6820435 0.67261463 0.5520457 0.5779392 0.62920666 0.6896517 0.6682583 0.5992265 0.5478791 0.58463085 0.5343654 0.5331496 0.38295722 0.46943074 0.17112035 0.073204935 0.097233325 0.09675798 0.25593084 0.42204738 0.5231191 0.034537047 0.1779913 0.48606065 0.6455808 0.13338506 -0.0818252 -0.15928909 0.09421249 0.6484724 0.68059355 0.14353156 0.5425876 -0.082587175 0.08091939 0.26011354 0.42804262 0.45797154 0.19416481 0.24364401 0.3230827 0.37226582 0.39328733 0.20253907 0.22107507 0.29930282 0.28140777 0.17539065 -0.19251879 0.29253584 0.28317323 0.4385627 0.50875217 0.3144452 0.32262304 0.31095034 0.52137494 0.5459877 0.3130408 0.35152075 0.4671737 0.54005915 0.5782778 0.5835454 0.4735548 0.54843205 0.5871383 0.5981038 0.64944804 0.6970719 0.68016124 0.51515454 0.5496527 0.64123005 0.51666236 0.4938336 0.41129065 0.35696074 0.1497834 0.2864801 0.11930294 0.030328942 -0.093477 0.065419324 0.08421648 -0.13796656 -0.14927557 0.10018169 0.11359541 0.26431668 0.3405223 -0.23011622 0.08795081 -0.32820642 0.51467335 0.072524 0.43572524 0.4014421 0.12922257 0.084644124 0.25882044 0.33805406 0.37877604 0.32504505 0.289112 0.3696648 0.30215374 0.09196553 0.47765863 0.18246889 0.023366958 0.5405339 0.5075371 0.29545522 0.514651 0.46239573 0.38173673 0.27654624 0.103901155 -0.069515854 0.22536078 0.5570605 0.5684129 0.3053528 0.27125868 0.581056 0.6117749 0.2519178 0.26804683 0.59959805 0.6091126 0.44242537 0.51011187 0.5529259 0.57460856 0.5821028 0.52525365 0.58888793 0.6716951 0.6916307 0.69932926 0.6065718 0.35436162 0.39038283 0.20894061 0.07869638 -0.05016596 0.0892758 -0.039836776 0.012399904 0.16832022 -0.067303315 0.024158873 -0.10144952 0.124136634 0.20737174 -0.18230176 0.03718117 0.1641024 0.2145644 0.23759136 -0.017723883 -0.18283671 -0.20776889 -0.0065048933 0.3011525 0.7008015 0.62766075 0.038679972 -0.076139174 -0.22968084 0.43372688 0.7171583 0.692629 0.6377001 0.6544827 0.0872736 0.6715126 0.68358654 0.70526433 0.68522835 0.17384142 0.003508775 0.33377227 0.36493388 0.70899916 0.2869932 0.24091285 -0.15222524 0.13472378 0.34344012 -0.37263098 0.46663755 0.4429978 0.5577795 0.50812745 0.2675991 0.6070568 0.5752994 0.43257877 0.5238567 0.5965955 0.5485595 0.42544544 0.27386457 0.038906544 0.56946 0.5370908 0.47850785 0.40585726 0.31332117 0.17779867 0.60579467 0.1101437 0.23474537 0.55722106 0.58814883 0.36401325 0.4418128 0.5402918 0.53103656 0.54166186 0.5018541 0.526768 0.5766093 0.61859304 0.7936096 0.7465582 0.4484706 0.48224765 0.53567886 0.61976016 0.760525 0.74219024 0.65140605 0.31964022 0.40268362 0.35216695 0.23563051 0.61835396 0.38105556 0.025803052 0.6116526 0.61896604 0.3264891 0.28807956 0.22977269 0.1845488 -0.054793946 0.11142558 0.1669984 0.1778503 0.6559916 0.59336054 0.07692583 0.059126697 0.17184295 0.23620206 0.79391766 0.7648561 0.67015064 0.5817628 0.551388 0.15004617 0.04887059 0.029449068 0.2586745 0.7788564 0.7667556 0.6944051 0.6145078 0.5594282 0.5583941 0.081918776 0.4025886 0.74414825 0.7288692 0.62376565 0.60878587 0.64627016 0.13591327 0.33201376 0.7048136 0.66996264 0.67793876 0.6893273 0.65960026 0.21573015 0.13456348 0.27521962 0.66835356 0.7046762 0.7249738 0.70852435 -0.32038105 0.028918728 0.68340015 0.7134026 0.4353346 0.34893164 -0.3070302 0.5624202 -0.1416932 0.60066485 0.29478037 0.34837446 0.6343328 0.49958608 0.6192293 0.61797446 0.18452503 -0.056352213 0.51929134 0.52579993 0.6527605 0.5624533 0.5655073 0.49366048 0.38411212 0.29735035 0.15011767 0.059818428 0.5775549 0.5121475 0.08388083 0.51789415 0.5166889 0.38371423 0.46728843 0.45694256 0.45397398 0.44920373 0.4841621 0.6492462 0.7195827 0.73678005 0.7202502 0.68028927 0.73028004 0.7096108 0.35934833 0.4073264 0.41771895 0.5595897 0.63645005 0.62181544 0.5581618 0.566624 0.57512206 0.4406491 0.4043389 0.2889067 0.46739477 0.40465432 0.5670747 0.60204375 0.60025156 0.6049384 0.43080807 0.44146478 0.085447475 0.3091913 0.022944428 0.5839731 0.6070938 0.61923414 0.62262964 0.3697319 0.38660514 0.017997012 -0.19731222 -0.11479356 0.5594461 0.6029752 0.61600494 0.6326518 0.494167 0.32840282 -0.15200937 -0.12566759 0.021315686 0.5414185 0.567577 0.6048806 0.6524683 0.5469614 0.4888905 0.073297046 0.055971198 0.42047873 0.4632709 0.48520806 0.4911426 0.72601235 0.64722013 0.57006526 0.44556597 0.52541155 0.46059394 0.28974712 0.14052641 0.35913616 0.4113357 0.4330771 0.7955313 0.7548737 0.53964406 0.49642974 0.43404683 0.29278806 0.21435973 0.81606734 0.47284022 0.7423928 0.6178415 0.07245505 0.25309956 0.64844084 0.5915673 0.17533535 -0.14911376 0.09387854 0.08630225 0.5807754 0.6624477 0.55856264 -0.46805346 0.53118 0.54199564 0.6530338 0.67811394 0.36878484 -0.40021384 -0.11242469 0.72091925 0.7074561 0.60774225 0.0045119096 0.06782937 0.75032115 0.7364498 0.6730213 0.5643793 0.50620174 0.62723327 0.701159 0.7314871 0.6631087 0.4667524 0.49144033 0.5451971 0.6014646 0.59040856 0.5130298 0.37716818 0.6341559 0.6628357 0.6527275 0.5956335 0.5386458 0.3908401 0.5412945 0.6137413 0.63907737 0.5331863 0.52859306 0.33288103 0.24064276 0.18413728 0.47655532 0.61027014 0.6267324 0.66221493 0.64321744 0.61085176 0.5907478 0.6228036 0.6376313 0.48087215 0.24533032 0.02278855 0.391295 0.38839978 0.6039928 0.61896044 0.63840395 0.5823989 0.24580857 0.19655198 0.080677174 0.020992924 0.12913151 0.35997093 0.3743443 0.36564416 0.3587201 0.5821477 0.5851277 0.58521485 0.3948028 0.58749235 0.63956344 0.45580465 0.55055106 0.64769727 0.6717012 0.6655817 0.515091 0.61820227 0.60196364 0.53661144 0.48512807 0.4571155 0.5332153 0.5535734 0.54132336 0.5005705 0.45951772 0.4476745 0.34277344 0.25836453 0.22433563 0.24299239 0.41893345 0.50596976 0.57625675 0.5074909 0.45006803 0.46229684 0.024143204 0.6410835 0.6491345 0.63439643 0.5838388 0.52613306 0.30219388 0.41102937 0.0541661 0.0161601 0.5310459 0.61223996 0.6218891 0.6001853 0.56463826 0.5160537 0.53765714 0.56408525 0.51311815 0.3558474 -0.07385181 0.30182463 0.45186502 0.5793673 0.5549564 0.5070692 0.3875764 0.59489316 0.54754174 0.62833375 0.5747225 -0.0126994625 -0.08485271 0.50099003 0.46755067 0.6844103 0.6022427 0.44304898 0.39788836 0.3715846 0.5155561 0.5061456 0.6369928 0.5682945 -0.06336793 0.09525744 0.2766088 0.41517013 0.3674273 0.3979514 0.29931438 0.70570046 0.5902264 0.23861845 0.27378923 0.284598 0.31000894 0.37545854 0.39083323 0.5481285 0.33137238 0.24607772 0.27253133 0.693722 0.087307274 -0.058884773 0.1751683 0.15359055 0.20387112 0.2570669 0.31156874 -0.29170698 -0.22204871 -0.15586641 -0.0714777 0.45779303 0.46075448 0.29664353 -0.590148 0.44972414 0.31572634 -0.1978751 0.4520538 -0.04690572 0.7647957 0.7317344 0.6902553 0.5372557 0.5452762 0.06769219 0.7242341 0.74697137 0.2149714 0.15652314 0.0643651 0.24405673 0.41370127 0.5542923 0.55180347 0.104002364 0.6747688 0.6911653 0.2396444 0.057171963 0.21237525 0.54125786 0.6087016 0.63979435 0.48352414 0.6367754 0.62111664 0.34162366 0.6632334 0.6883833 0.48220003 0.43334025 0.455535 0.05146782 0.05262315 -0.032416105 0.28603888 0.5631967 0.5111486 0.62227356 0.6567049 0.678226 0.032640643 0.27759963 0.28698155 0.5426159 0.5672097 0.515533 0.21046661 0.41484815 0.4994387 0.55832285 0.6368192 0.11238337 0.014550529 0.10664929 0.1337707 0.24775308 0.2445673 0.53041947 0.53357255 0.5099715 0.53190756 0.4760886 0.5541867 0.54526925 0.6138457 0.70404255 0.6985087 0.4261313 0.45167768 0.6326134 0.5823364 0.71393824 0.71534735 0.68967366 0.41146624 0.4353438 0.5316447 0.6711155 0.69279534 0.6799941 0.4840259 0.51893574 0.49469107 0.4385282 0.35502085 0.4247376 0.59793186 0.62858474 0.3079154 0.45798966 0.45002913 0.41683382 0.33196652 0.24428424 0.26503804 0.13915975 0.5351192 0.47424704 0.41784224 0.37790293 0.19827309 0.042677596 0.15531951 0.6097769 0.64261377 0.6571598 0.63373387 0.6048499 0.6309564 0.59387106 0.5215997 0.34760895 0.44046438 0.35881233 0.30298245 0.3398417 0.3494646 -0.07313479 -0.56702083 -0.53803647 0.11194411 0.47072083 0.6216898 0.5812285 0.59629375 0.54228365 0.45856565 0.45688242 0.6604781 0.5908334 0.50748545 -0.022755727 -0.17002708 0.16822782 0.5133908 0.37446558 0.44996387 0.5551616 0.42526418 0.37825495 0.31765568 0.058294907 0.49839312 0.46061265 0.7788244 0.6949531 0.6087369 -0.22753632 0.0064228736 0.3239711 0.44455385 0.3073054 -0.015115887 -0.014359944 0.0796699 0.20473385 0.41456696 0.47586912 0.8558634 0.7378528 0.3567416 0.25785825 0.44590065 0.5204177 0.2583264 0.19151294 0.063392825 0.09080899 0.11148621 0.37858734 0.42851835 0.88582945 0.80787694 0.21424864 0.5954251 0.06602754 0.20064726 0.36616892 0.39856288 0.45218343 0.87928796 0.82733643 0.67826706 0.27659905 0.27294862 0.4174709 0.13693799 0.13924143 0.46558928 0.23290431 0.110185266 0.12370378 0.18700726 0.21659201 0.2703455 0.4008293 0.40445113 0.08907509 0.050407153 0.09503211 0.15313601 0.208826 0.33224902 0.033766545 0.1960351 -0.28155065 0.0021957085 -0.1593697 0.2815787 0.30434784 0.21167228 -0.060706593 0.028201656 0.1312136 0.037487358 0.22108965 0.11175107 0.17627162 0.7814324 0.7445966 0.62504786 0.46973723 0.12615728 0.016236529 0.12214518 0.4522137 0.3115871 0.10964205 0.7359462 0.1776517 0.08778623 0.06283712 0.50579053 0.61475015 0.35452068 -0.055321544 0.6489701 0.67645 0.647226 0.3056622 0.08423325 0.58959657 0.560936 0.69316185 0.6507683 0.3225987 -0.05449398 0.13622743 0.47407407 0.6836443 0.102713436 -0.13276489 -0.27348453 -0.16427794 -0.024288502 0.1705577 0.20784533 0.46974742 0.579948 0.616663 0.65837836 0.26666677 0.049687058 0.44026315 0.40232587 0.32001913 0.1939323 0.5020087 0.56364787 0.6053812 0.6692402 0.7215538 0.64237535 0.6932131 0.7394292 0.70845443 0.636917 0.7127868 0.716872 0.6910131 0.6559062 0.67761815 0.66524243 0.68978274 0.67531323 0.681246 0.6659279 0.3704375 0.4279471 0.5668851 0.6147988 0.68302596 0.6869069 0.66657484 0.6329333 0.4012127 0.37598062 0.36621973 0.6110885 0.6792666 0.67608887 0.64894354 0.43899232 0.48931998 0.53602535 0.5268945 0.38307226 0.47329414 0.544873 0.644467 0.6263848 0.38097197 0.48574668 0.5030813 0.4190128 0.3286458 0.3821323 0.2431133 0.51323134 0.58756024 0.567349 0.5516397 0.2889639 0.0918143 0.3056919 0.6288756 0.5943407 0.55510914 0.47193962 0.28742486 0.34550804 0.3465054 0.3038052 0.12454225 0.64377296 0.6348461 0.59033567 0.5833843 0.6563299 0.6328263 0.3355439 0.37725937 0.45003814 0.29797277 0.17862415 0.33189517 0.09375774 -0.29644692 -0.16650087 -0.46044934 0.03231788 0.20653532 0.51009476 0.5300862 0.6546704 0.6874782 0.6636946 0.61270404 0.39035594 0.69331264 0.64772356 0.530645 0.116035 0.15410526 -0.33027592 -0.195056 -0.26698095 0.6024327 0.65124583 0.41295522 0.84444314 0.7500112 0.56000525 0.25753495 0.25473183 0.13233769 0.43009877 0.93011886 -0.11687729 0.022043794 0.92865026 0.10819754 0.22270896 0.86314267 0.123140976 0.39589268 0.46146154 0.5062752 0.896411 0.84850174 0.7483104 0.5952618 0.10897508 0.34691328 0.11462848 0.07027888 0.42987782 0.49036342 0.5180704 0.5261937 0.1816968 0.09479205 0.5023913 -0.14803602 -0.04043984 0.03519935 0.10321128 0.18301253 0.19800371 0.13652632 0.060410727 0.005312316 0.0028836057 0.028091028 -0.06256579 -0.05060327 -0.012933172 -0.0348592 0.14370699 -0.15172775 0.11549221 0.07677369 0.18927085 0.16590506 0.71196926 0.54238176 0.3678655 0.147639 0.087740645 0.4794349 0.5223937 0.0027667582 0.13455988 0.6890776 0.0296444 0.61956024 0.6028297 0.41862503 -0.17509225 0.62068033 0.4523361 0.3670141 -0.19095472 0.16575316 0.6372299 0.622493 0.45224684 0.4518097 -0.30102122 -0.0772749 0.34288782 0.5528317 0.5983709 0.45064723 0.33171546 0.023004543 -0.29036456 -0.21718234 0.063047834 -0.034718126 -0.0646535 -0.023223622 -0.012573071 0.449099 0.5335441 0.25546658 0.26216763 0.24614851 0.39409694 0.5168953 0.16695446 0.0062853247 0.5496622 0.25935188 0.2598853 0.5114775 0.4820854 0.18513438 0.41518942 0.55115986 0.5143616 0.50756073 0.60889745 0.6373668 0.65581375 0.60631514 0.6094964 0.629534 0.61992574 0.60219264 0.6756096 0.69905525 0.6889895 0.5671846 0.6499977 0.6706662 0.61179334 0.2668397 0.2956913 0.45601892 0.5948875 0.5544629 0.39201248 0.33825845 0.543478 0.45928457 0.41337228 0.47501004 0.5530603 0.50203043 0.34766 0.39794528 0.5324253 0.5274571 0.34684342 0.45488995 0.4020285 0.24199398 0.4220519 0.5600624 0.51416975 0.32246363 0.20781943 0.32640117 0.03908427 0.15793009 0.19932774 0.304926 0.46625614 0.61435354 0.5804025 0.31180516 -0.01706239 -0.06351879 -0.079496674 -0.004789941 0.5824845 0.54735327 0.5704737 0.6598582 0.69316614 0.6423056 0.34242564 -0.17510518 -0.0941555 -0.3374109 -0.6395877 -0.16131206 0.26338625 0.49696514 0.47796446 0.62032115 0.67131525 0.7033121 0.6334864 0.7587316 0.6973673 0.611924 0.42870483 0.3469489 0.11672449 -0.049387965 0.045004293 -0.4433754 -0.32065815 0.7106562 0.7089751 0.4836409 0.89732224 0.8258525 0.6261642 0.2724885 0.2106007 0.9593903 0.43314603 0.45702386 0.93651044 0.8879779 0.13180578 0.198039 0.5014088 0.9012957 0.83707 0.77366734 0.6042905 0.05134785 0.10185547 0.15025309 0.19910121 0.05123766 0.28233594 0.5467757 0.5402473 -0.21857315 0.09443302 0.04392433 0.09635762 0.13949177 0.40374583 0.49695754 0.54290664 -0.17642128 -0.022232324 0.11221266 0.004680909 -0.20252886 -0.28260076 -0.05170642 -0.07124681 0.048025526 0.090818346 0.052091025 -0.04668604 -0.14806436 -0.24058838 0.056577414 -0.1439304 -0.28951305 -0.30712038 0.051407017 -0.060666636 0.15367538 0.6346251 0.598126 0.15728278 -0.043605976 -0.040634155 0.42438012 0.58293843 0.43145958 -0.17956851 0.5883765 0.4634314 0.17639542 0.2994535 0.19280334 0.20952214 0.58876693 0.5783038 0.45155293 0.44909012 0.44723547 0.5025299 0.38367257 0.35672927 0.48174667 0.39619657 0.24473406 0.055751488 -0.23719212 0.54726005 0.5824201 0.4488121 0.45023626 0.32448566 0.41755646 0.35067582 -0.071796626 -0.015047044 -0.041424897 0.00037530437 0.38789117 0.573743 0.6219344 0.63579375 0.5112485 0.47735 0.44953758 0.3227644 0.33868238 0.36468405 0.37126672 0.47312778 0.45011857 0.36627293 0.16769141 0.015892118 -0.0011869669 -0.0066938996 0.5672244 0.63726854 0.52111 0.4718709 0.42393664 0.3788267 0.38861138 0.5581133 0.55937946 0.5288984 0.5036571 0.27736545 0.6567627 0.65026736 0.62652624 0.53312665 0.48730356 0.69538426 0.72165596 0.7221324 0.6671714 0.5829245 0.5347893 0.5753545 0.5835465 0.57590914 0.52739483 0.7105878 0.70558953 0.67302203 0.54618675 0.5681503 0.5614162 0.54128855 0.63098365 0.69810486 0.658919 0.62509185 0.3185331 0.32947427 0.5441681 0.13061541 0.43600863 0.4144498 0.30820227 0.30851588 0.1946964 0.18440215 0.1129739 0.38359573 0.48445523 0.550702 0.50237703 0.38549006 0.2615401 0.290093 -0.6482972 0.37758312 0.22016388 0.36503088 0.36834627 0.336658 0.058949426 -0.6985146 0.38037556 0.5168375 0.4444846 0.3323924 0.36043698 0.013569232 -0.20715043 -0.08071774 0.39403775 0.5488064 0.07422882 0.18795526 0.6001847 0.6666479 0.68204856 0.5537764 -0.01676087 0.22120087 0.47313225 0.6994374 0.70702446 0.52140486 0.35593405 0.74364704 0.7028527 -0.064539105 -0.19711974 0.215184 0.70093167 0.28827104 0.82120645 0.780862 0.72052467 -0.060376137 -0.23001517 0.63158834 0.15737349 0.889714 0.7237691 0.13338006 0.42572302 0.9179374 0.8707491 0.7686293 0.61801517 0.50989926 0.75789833 0.18980666 0.23307136 0.5261247 -0.17114806 0.13763331 0.120728776 0.11579347 0.23512952 0.4611627 0.53227544 0.506779 -0.10439676 0.007558535 -0.023715688 0.07055621 0.22257608 0.19478254 0.14810747 -0.1953678 -0.27207145 -0.26365852 -0.056634046 0.021628441 -0.020928232 -0.27483878 -0.20364346 -0.37158257 -0.12616223 -0.008468121 0.024044156 0.03388785 -0.18927364 -0.02582946 0.011296473 0.12383554 0.24092352 0.077783264 -0.04130034 -0.15994868 -0.0566384 0.34540382 -0.27860847 0.30486047 0.26404834 -0.29396343 -0.1974387 0.53393185 0.42538068 -0.11439723 -0.08624296 0.17011565 0.048596196 0.5157862 0.56621194 0.43852478 0.11679671 0.3796646 0.33386832 0.28036174 0.40890235 0.5342108 0.4280617 0.089480065 0.13475189 0.2745171 0.390218 0.3177267 0.55249965 0.5387734 0.50254506 0.216493 -0.03861554 0.12528953 0.6187401 0.5636