# vtk DataFile Version 2.0
Really cool data
ASCII
DATASET POLYDATA
POINTS 3415 float
78.269 5.1411247 -20.122284
78.25477 4.5874496 -19.325287
78.10291 4.9762793 -18.613718
78.220726 4.927274 -18.09469
78.36166 4.8354096 -13.45423
78.39032 5.0800653 -13.030151
78.14462 5.53157 -20.099747
77.9184 5.5392356 -19.423063
77.873344 5.531194 -18.648916
78.082954 5.6423197 -17.993933
78.42676 5.406274 -14.147659
78.28982 5.496514 -13.337143
78.391266 5.5735435 -12.928565
78.40405 6.7474318 -20.91338
78.2197 6.508617 -20.332764
78.083435 6.5801005 -19.57679
77.851776 6.11774 -18.538939
78.25205 6.5483336 -17.973478
78.42529 5.9525924 -14.103614
78.43042 6.001613 -13.0258665
78.39383 7.182185 -20.25996
78.14556 6.990537 -19.475994
78.170494 6.8968573 -18.538729
79.35133 -8.083305 -12.142027
79.264046 -8.341699 -11.365496
79.3107 -8.307198 -10.629653
79.23646 -7.555617 -12.139642
79.095825 -7.5497503 -11.668971
79.14148 -7.414166 -10.542509
79.33898 -7.313582 -9.977167
79.280365 -6.859996 -12.012459
79.16658 -6.383546 -11.449882
79.09306 -6.337887 -10.663145
79.21943 -6.2711673 -10.001914
79.4052 -5.8049865 -11.75123
79.23304 -5.53316 -11.236556
79.11488 -5.520981 -10.405254
79.24887 -5.3138123 -9.92199
79.22354 -5.0847244 -11.048096
79.256386 -4.9647098 -10.519071
79.40234 -4.851218 -9.84379
79.1874 3.1805694 -15.082665
79.20944 3.1397557 -14.611061
79.240074 3.3005388 -13.914695
78.967926 4.104108 -20.003296
78.78998 3.9860501 -19.320456
78.88107 3.92047 -18.753717
79.013985 3.671753 -15.093877
78.91507 3.7543008 -14.654011
78.821014 3.8979115 -13.7215805
78.89983 4.151519 -12.910405
79.1982 4.9106784 -21.03584
78.60145 4.7010875 -20.238184
78.46992 4.334248 -19.51631
78.65825 4.7631083 -17.654362
78.602066 4.420192 -14.307411
78.538574 4.442311 -13.398105
78.72078 4.6888623 -12.691053
78.950096 5.097074 -12.192326
79.17829 5.933008 -21.705158
78.906815 5.669761 -21.379524
78.72621 5.4495625 -17.347107
78.60874 5.4336214 -14.524993
78.5995 5.5113635 -12.545791
78.90065 5.524787 -12.255813
79.070694 6.410486 -21.725971
78.622154 6.4657803 -21.25414
78.637764 6.1942577 -14.3024845
78.6003 6.466259 -13.293557
78.71568 6.0080767 -12.494276
78.85888 7.090853 -21.250711
78.62769 7.3545647 -20.404833
78.47821 7.734205 -19.400705
78.625824 7.381656 -18.279692
78.760895 7.8866343 -15.938938
78.65791 7.567081 -15.316718
78.74753 7.7426524 -14.894098
78.85526 6.758554 -13.49215
79.1018 6.8707438 -13.006974
79.28219 8.057017 -20.831999
79.08215 8.448679 -20.239273
78.90674 8.356372 -19.722496
79.14716 8.1807575 -18.334686
78.91978 8.328663 -16.152489
78.7645 8.211436 -15.463748
78.85285 8.355914 -14.909775
79.19488 8.769849 -19.96531
79.30053 8.900682 -18.983997
79.27822 8.977553 -16.437325
79.11394 9.125588 -15.435777
79.17306 9.107229 -14.932514
79.9867 -8.830332 -12.042557
79.82314 -8.850996 -11.509466
79.89408 -8.907843 -10.609386
79.92708 -8.105239 -12.679875
79.69515 -8.3289 -12.330953
79.44221 -8.498737 -11.663471
79.529594 -8.509554 -10.446143
79.791016 -8.414977 -9.924426
79.84873 -7.628765 -12.749535
79.54572 -7.7086115 -12.567482
79.592255 -7.541067 -9.689787
79.80642 -7.088081 -12.74731
79.75514 -6.671501 -12.458045
79.43443 -6.9258966 -9.791846
79.79268 -6.2437735 -9.14046
80.23174 -5.47494 -12.3706255
79.46066 -5.282635 -11.540015
79.507545 -5.227521 -9.383475
79.89732 -5.652092 -8.987654
80.14913 -5.1869297 -12.076784
79.64076 -4.7949166 -11.338268
79.47897 -4.514641 -10.277434
79.727356 -4.670806 -9.577766
80.00238 -4.7776117 -9.108956
80.09739 -4.166775 -10.955155
79.93279 -4.214595 -10.263208
79.97217 -4.2762513 -9.820645
80.36967 -2.063526 -0.36006838
80.3726 -2.4885674 0.5653709
80.40393 -2.1811829 1.0990044
80.26053 -1.2731405 -0.2576426
80.20398 -1.5411938 0.51679903
80.32769 -1.4988621 1.0958073
80.3032 -0.9172097 -0.12417523
80.25463 -0.91045827 0.3517579
80.35734 -1.0267625 1.0275444
80.17519 2.371338 -14.409076
79.89202 3.40794 -19.15556
80.090454 3.2882605 -18.658535
79.71428 2.6969967 -15.455415
79.68211 2.6434052 -14.527123
79.61816 2.978936 -13.819178
79.641975 3.9836059 -20.122908
79.65687 3.5712793 -19.355452
79.78019 3.6649237 -18.044268
79.46227 3.8197567 -12.806152
80.4621 3.3569872 -0.52394986
80.29448 4.0536942 0.12554969
79.49574 5.020532 -21.276749
79.302505 4.3543353 -20.527798
79.59097 4.2395067 -16.521055
79.772705 4.9427814 -11.885996
80.26458 4.8125978 -0.8861051
80.10884 4.6759143 -0.34063292
80.16251 4.7145104 0.30324528
79.63814 5.7484093 -21.75164
79.30537 5.546905 -21.571594
79.40011 5.708916 -11.981247
80.170845 5.6288376 -1.1124914
79.95834 5.604298 -0.24674596
80.10854 5.5602145 0.28919706
79.65685 6.4631658 -21.89593
79.25718 6.4897885 -12.425725
79.68064 6.401703 -12.1827545
80.433586 6.5303335 -2.008226
80.33184 6.7391543 -1.3428215
80.22382 6.4852257 -0.50922984
80.235886 6.176094 0.31445986
79.56432 7.0082045 -21.760445
79.91341 7.2033324 -12.718674
80.45946 7.462895 -2.126254
80.44906 7.411484 -1.5105493
80.37009 6.8231945 -0.75226635
79.892166 8.191271 -21.202328
79.43687 8.603819 -20.474503
79.60031 8.59738 -13.854904
79.82299 7.8960643 -13.329076
79.88794 8.754205 -20.773323
79.70093 8.942693 -20.289833
79.72462 9.193922 -19.509537
79.86514 9.260023 -18.666882
79.99421 9.47633 -17.681591
79.5872 9.301033 -16.648678
79.38984 9.477173 -15.612312
79.62603 9.3551445 -14.46926
80.0605 9.2894335 -13.9460745
80.29572 9.814994 -17.714956
80.12368 9.873957 -16.28754
79.60451 9.757849 -15.393504
79.76054 9.791073 -14.921137
80.799164 -9.03298 -12.091302
80.68514 -9.202486 -11.493275
80.530426 -9.169243 -10.712419
80.3949 -8.805716 -9.918788
80.60084 -8.331073 -12.73185
80.5059 -8.527985 -12.568376
80.51258 -8.429309 -9.563811
80.83595 -8.022529 -9.100293
80.43684 -7.5232697 -12.980946
81.00548 -7.047307 -8.618584
80.560394 -6.3490596 -8.587436
81.158424 -6.1218677 -7.914187
80.95541 -5.8483863 -13.008668
80.9188 -5.7755976 -8.033483
81.27984 -4.6418543 0.7978061
80.74984 -4.3894653 -11.970178
80.51537 -4.636156 -8.884634
81.02188 -5.0283895 -8.211262
81.184296 -4.2682405 -0.27195516
81.09539 -4.3508105 0.4919154
81.120735 -4.278278 1.2325828
81.27462 -3.9609742 1.7233932
80.751625 -4.228847 -11.36804
80.30141 -4.0931435 -10.4134445
80.891884 -4.358878 -8.892486
81.2536 -3.3158455 -1.0910475
80.836105 -3.3160608 -0.3619826
80.73213 -3.38908 0.58341724
80.850395 -3.5252457 1.2141955
81.1942 -3.0895855 1.8514924
80.76289 -2.1765857 -1.0347586
80.57829 -2.5557692 -0.46705914
80.67855 -2.3089588 1.409276
81.03903 -2.4684932 1.7402846
80.522934 -1.7367634 -0.98025465
80.620384 -1.5162377 1.4917307
81.14257 0.027110115 -1.768777
80.95299 -0.7628378 -1.3635169
80.49151 -0.61172664 -0.3972352
80.5075 -0.36353183 0.13969219
80.56899 -0.9380624 1.3189948
81.14869 0.4277215 -1.869392
80.69358 0.08239661 -0.22979534
81.01426 0.39276296 0.4936522
81.24866 0.35369498 1.346833
80.63672 2.3211875 -15.889459
80.33924 2.3137758 -15.473768
80.52251 2.2430527 -14.3270445
81.41037 1.5897627 -2.989495
81.08685 1.5501308 -2.1871262
80.88771 1.4802922 -1.5416704
80.9185 1.428773 -0.84388906
81.24232 1.3426014 0.33138457
81.19211 1.793258 1.6384205
81.273315 1.9620447 3.0172083
81.175385 2.242046 4.6151385
80.4664 3.0498347 -18.419184
80.525276 3.2461772 -17.205585
80.269424 2.8043447 -13.593019
81.0989 2.8457174 -13.216949
81.0316 2.2418838 -2.3089142
80.83803 2.4368792 -1.2118295
80.72698 2.466654 -0.5613127
80.71189 2.9016938 0.639309
80.90618 2.4164615 1.8506707
80.82019 2.8445013 2.7794669
80.877716 2.574864 3.650703
80.943924 2.749365 4.5175934
81.14606 2.8456628 5.0535846
80.828514 4.283981 -20.780518
80.5227 4.0025163 -20.210068
80.15769 3.4700592 -19.608358
80.74158 3.5857925 -12.3886385
81.027016 3.0216086 -1.951844
80.839966 3.540091 -1.5388132
80.52274 3.474605 -0.6471419
80.62925 3.5982153 0.7127949
80.96549 3.4752088 1.4399841
80.85866 3.3166578 2.5791082
80.71043 3.1409492 3.7914886
80.86431 3.429548 4.4097295
81.160965 3.380897 5.0802307
80.801125 5.163568 -21.6019
80.47163 4.94277 -21.382757
80.48975 4.697216 -11.775817
81.21575 5.1334434 -2.671873
80.556946 4.4212694 -1.3458141
80.63551 4.09556 1.448877
81.233 4.5316796 2.2723935
80.98811 3.9692464 3.4210854
81.04928 3.9464402 4.4260426
81.24988 3.855483 4.9578705
80.619156 5.6932817 -21.769716
80.71271 5.446448 -11.569595
81.21056 5.800086 -3.0439606
80.63174 5.557018 -1.7748842
80.409195 5.7371225 0.78792983
80.317154 6.300484 -21.947718
81.35834 6.596925 -7.0321574
81.16437 6.845969 -6.324822
81.185074 6.785507 -5.547865
81.33159 6.61717 -4.732434
80.925804 6.554057 -3.2917347
80.58053 6.587859 -2.4139397
80.49473 6.377717 0.5723504
80.92539 6.303283 1.0780574
80.41556 7.4093513 -21.706264
80.33305 7.688744 -12.968462
80.85149 6.8431582 -11.884542
81.116066 7.4936743 -7.129825
80.96025 7.605595 -6.618321
81.07075 7.3788214 -5.7079544
80.91479 7.747732 -4.0242796
80.88439 7.482253 -3.4061213
80.57658 7.3739266 -2.5740197
80.55353 7.5048914 -1.5536605
80.84436 7.11495 -0.20190732
80.86007 7.2653756 0.07011299
80.39255 8.29978 -21.251976
81.15481 8.249858 -7.174955
81.01163 8.227421 -6.5336175
81.0785 8.607032 -5.566471
80.98332 8.369781 -4.4084544
80.77653 8.04298 -3.311996
80.87039 8.35352 -2.9262514
80.84086 8.403145 -1.5101011
80.98578 8.26392 -0.3628254
80.70579 8.7871475 -20.830944
80.31655 9.15106 -20.319809
80.267784 9.326321 -19.82212
80.64701 9.061861 -13.431911
80.968765 8.972222 -13.099846
81.29828 8.987737 -7.0223117
81.41386 9.896737 -6.587113
81.155716 9.384289 -5.5403776
81.16614 9.35845 -4.474919
81.2537 9.370236 -3.3492677
81.02953 8.88868 -2.4110036
81.171005 9.023505 -1.4776392
81.17483 9.044252 -0.8214087
81.35246 8.96287 -0.14093666
80.76001 9.982815 -18.389965
80.76059 10.048444 -17.159925
80.5156 9.948882 -16.525595
80.66792 10.196311 -15.676108
81.37572 10.573695 -6.153658
81.31739 10.520619 -5.3997326
81.41258 10.882315 -5.998128
81.42066 10.916187 -5.3076344
81.31873 -8.98568 -12.105952
81.21279 -9.236804 -11.498452
81.5782 -9.076301 -10.619773
81.154175 -8.7131815 -9.711349
81.441185 -8.256315 -12.662482
[...]
POINT_DATA 3415
SCALARS features_00 float 1
LOOKUP_TABLE default
0.6734474 0.6292969 0.6162952 0.57319665 0.5846338 0.6030278 0.68890405 0.65956104 0.6198311 0.57246554 0.55239326 0.5910949 0.60050666 0.68212235 0.6537442 0.6001245 0.5946692 0.49990857 0.525406 0.5838707 0.58989906 0.5573549 0.5192566 0.76095927 0.81725967 0.81491995 0.721768 0.7501848 0.74620867 0.6973785 0.66082597 0.65946376 0.6730641 0.65296066 0.5991747 0.6361917 0.6621195 0.65785897 0.64363974 0.658815 0.6548686 0.39960176 0.43705028 0.46834576 0.5655508 0.55204403 0.52171457 0.38791844 0.44019192 0.51443416 0.57648873 0.6148005 0.6333387 0.60542434 0.5009186 0.51606715 0.570685 0.61050093 0.6182492 0.6745504 0.6821786 0.46085012 0.5108725 0.607507 0.60577464 0.7015444 0.7141533 0.48093253 0.54120696 0.58379173 0.69070643 0.59452546 0.5024865 0.4089061 0.29074204 0.30731124 0.3597738 0.4941926 0.48920453 0.5960408 0.53866124 0.5014219 0.33732834 0.31671423 0.35636508 0.38809055 0.5084461 0.41192228 0.30193216 0.38417032 0.4101134 0.7905927 0.8305069 0.8407123 0.73344815 0.7643068 0.811638 0.81840754 0.7688258 0.69089067 0.71712995 0.68530613 0.62363064 0.5836013 0.6504996 0.6020528 0.5164798 0.61175025 0.6357833 0.6102144 0.55623364 0.6197839 0.65185565 0.63747096 0.61577845 0.60531574 0.6258074 0.6203686 0.5203404 0.57512057 0.5602389 0.4565059 0.49741513 0.48255008 0.42724872 0.43344554 0.4227684 0.43719184 0.4123513 0.3447071 0.38972884 0.44449812 0.45764416 0.50979304 0.45745233 0.35604432 0.5560125 0.1816758 0.2504032 0.5968203 0.56670874 0.2722473 0.598765 0.30603454 0.3264345 0.34511244 0.6298678 0.6436999 0.5812167 0.35633808 0.41857028 0.43273193 0.6668887 0.5191426 0.49833012 0.27727884 0.32596946 0.3841575 0.42186865 0.6999774 0.37673622 0.25107345 0.28138286 0.34877768 0.60443485 0.55032027 0.35087645 0.31973344 0.55902743 0.5274497 0.46485513 0.36153373 0.23262362 0.2631532 0.3568189 0.3947771 0.30724016 0.23619865 0.22203118 0.34840068 0.3639316 0.750105 0.80430174 0.83892894 0.77113664 0.7077062 0.7333871 0.6965251 0.57746345 0.6403042 0.50263554 0.5755245 0.5065043 0.41499394 0.56889576 0.6724057 0.5062026 0.59006774 0.5578044 0.63578653 0.66811395 0.664643 0.6501912 0.5328308 0.591475 0.54106665 0.51749873 0.60407126 0.6406042 0.64018685 0.6200706 0.47032273 0.5489094 0.58154714 0.5974424 0.4444927 0.47696212 0.16075285 0.304225 0.37371394 0.36319786 0.39875516 0.1250994 0.2772937 0.21010542 0.17248544 0.289145 0.38677728 0.4171418 0.112276986 0.11441505 0.12700924 0.12969624 0.063348204 0.095655955 0.3447144 0.6954872 0.2767352 0.21212663 0.41930336 0.3238803 0.11778521 0.13577065 0.1401878 0.14656612 0.14451985 0.32273838 0.52898574 0.7103778 0.78409076 0.41053116 0.4194839 0.41089875 0.3955642 0.115440786 0.13871372 0.18509437 0.2000238 0.20314834 0.30803305 0.59079945 0.72718984 0.8086754 0.5065056 0.5195579 0.5105505 0.080597624 0.2135345 0.2567038 0.36804706 0.548662 0.7460594 0.8040873 0.5618635 0.4966485 0.081282824 0.26738158 0.42609832 0.61982346 0.24129184 0.25845966 0.22028518 0.13764489 0.14001523 0.240154 0.39268064 0.33100373 0.6556689 0.29661885 0.34058022 0.29301146 0.30242294 0.25944102 0.16490753 0.17862496 0.23079495 0.27391592 0.3199754 0.31053331 0.5849631 0.28441137 0.29634506 0.24841185 0.17917985 0.18983866 0.19853804 0.2454706 0.2773535 0.5396826 0.51950324 0.49119002 0.21034476 0.14366746 0.25604153 0.22557457 0.22967494 0.18710457 0.15969208 0.19871993 0.22364731 0.24563813 0.27670252 0.33039734 0.17971651 0.17754559 0.18938711 0.19656804 0.20179164 0.18227479 0.18794194 0.69399095 0.73975813 0.7070786 0.68592954 0.6145841 0.6560072 0.43907678 0.42280877 0.45046347 0.44099516 0.42172372 0.34113428 0.63311684 0.66360176 0.67170984 0.8575818 0.764241 0.5164128 0.5291876 0.6099314 0.66426384 0.6468869 0.87871146 0.85250646 0.7501383 0.19270006 0.29333422 0.29425386 0.22578403 0.48141408 0.61633563 0.8549661 0.7927476 0.70052356 0.433028 0.32402712 0.5252428 0.17922994 0.46178415 0.059230708 0.22593133 0.08412251 0.08858634 0.098852195 0.069061086 0.09056512 0.39818817 0.15623504 0.14276448 0.28291708 0.107789196 0.49396148 0.6625203 0.7533482 0.2543384 0.187769 0.1712555 0.22394413 0.02385736 0.036189746 0.09458266 0.8063464 0.8462474 0.26640505 0.25069413 0.31493482 -0.03891093 -0.022382103 0.0072590234 0.84019005 0.8577106 0.3269369 0.05779671 0.060539797 0.029669156 -0.08657638 -0.043930035 0.685789 0.81942916 0.41939634 0.09383475 0.11181828 0.15898462 0.1465462 0.3433738 0.5570333 0.45779797 0.22211537 0.08531106 0.26984075 0.56329274 0.24059813 0.51838875 -0.06012827 -0.09452322 0.11336776 0.21664421 0.31172234 0.37649468 0.49694836 0.43857265 0.3564584 0.07743369 0.25911942 0.29670098 0.33887216 0.26420426 0.16452709 -0.13120714 -0.121463746 -0.014036808 0.08725756 0.12637457 0.16354251 0.21986118 0.1471898 0.1365499 0.15466899 0.21493588 0.31618193 0.26966152 0.23079342 -0.022389717 -0.122832455 -0.04416167 -0.029566914 0.08911258 0.1689561 0.15766536 0.18609235 0.21674247 0.27197623 0.3376771 0.45671552 0.4551155 0.39718938 0.28893247 -0.021496266 0.07730011 0.077119395 0.117319435 0.22148761 0.4013241 0.46152073 0.4545288 0.45918977 0.4295971 0.35787737 0.26593524 0.18677372 0.3183178 0.44975898 0.51791227 0.5141065 0.50172627 0.45452654 0.3887785 0.2687974 0.5550827 0.5668154 0.5328063 0.48593268 0.5969197 0.581656 0.5376992 0.63085175 0.5562634 0.49660677 0.5685751 0.58954895 0.4512343 0.32877493 0.32921964 0.36759767 0.73423165 0.5795957 0.2384539 0.48827562 0.5519074 0.6488262 0.6706744 0.85395133 0.7787933 0.092427194 0.48765647 0.64119923 0.8731909 0.8813789 -0.036390387 0.21203125 0.5415582 0.8504708 0.81460893 0.5789343 0.05361579 -0.10624176 -0.10756582 0.016411684 0.099305116 0.37503392 0.8280579 0.7902967 0.6907635 -0.2035582 0.44907707 0.18192834 0.19824924 0.13232598 0.021164365 0.038393274 0.14107521 0.1868543 0.1561954 -0.095457725 0.019407831 0.05528126 0.14797622 0.11740828 0.19882002 -0.08690081 0.16985819 0.18442127 0.12949368 -0.025864404 0.04147191 0.77570987 0.80631584 0.21516714 0.08440733 0.13868913 0.84779954 0.17845406 -0.03736389 -0.07600029 -0.11067916 0.85557806 0.19660245 0.23511563 -0.061031263 0.0008184463 0.018355513 -0.0047615357 -0.07737818 0.7049171 0.7629137 0.81286097 0.023623094 0.10276314 0.39850062 0.61176753 0.046074796 0.10461792 0.22355443 0.42909843 0.012256093 0.42473975 0.5623684 0.35485733 0.24326232 0.5220816 0.59390545 0.020416956 0.41219026 0.564257 0.603017 0.33790404 0.21546774 0.4734465 0.54423255 0.45478773 0.090305254 0.020553306 0.10147494 0.4562794 0.3929605 0.45415545 0.45938385 0.44850594 0.31768182 0.23615402 0.031677097 0.03008274 0.06935681 0.23292848 0.4214248 0.51769686 0.49820864 0.45220536 0.44593987 0.2360135 0.09518196 0.06518932 0.1674159 0.33582976 0.47392535 0.51998705 0.5001748 0.505494 0.4187749 0.27421632 0.1646736 0.59247446 0.6045289 0.575544 0.49277216 0.4040599 0.2995458 0.6069494 0.5691321 0.5238143 0.47555816 0.2860056 0.48800975 0.17600518 0.24910069 0.31281364 0.441943 0.35264122 0.27281517 0.72121537 0.5665931 0.23446123 0.24449438 0.23457487 0.29872283 0.66796774 0.8208107 0.23152144 0.10335783 -0.09470255 0.17894489 0.62854207 0.8573575 0.83679426 -0.01451692 0.47805724 0.8327915 0.8465857 -0.18550497 -0.15493737 -0.05664832 0.029137112 0.34865993 0.8024272 0.75736105 0.43217355 -0.23189548 -0.28473824 -0.25881088 -0.12810023 0.15884171 -0.11341939 -0.15648443 -0.099754535 0.10030247 -0.14413045 -0.20764679 -0.115481116 0.40558836 0.18768194 0.13629548 0.1348984 0.10759476 0.1299878 0.03634627 -0.09911542 -0.21787395 0.5542086 0.20759763 0.18686737 -0.16354859 -0.1929305 0.7977598 0.22170618 0.7186233 0.7839103 0.20707813 0.47733402 0.6815133 0.6039355 0.29822356 0.14175476 0.06968483 0.120904095 0.5944527 0.08637893 0.64544404 0.61539817 0.6504524 0.30680332 0.30982527 0.42044264 0.6037239 0.3715768 0.44101572 0.44283202 0.46039432 0.41984773 0.43436137 0.38579997 0.35114023 0.07232474 0.18129764 0.29684338 0.48509097 0.4889086 0.47439247 0.38199002 0.11710142 0.0629563 0.17510457 0.4750247 0.5225277 0.36149248 0.29977843 0.14165697 0.57915294 0.59857345 0.54172575 0.46824676 0.52513254 0.49635762 0.46141046 0.5119131 0.46589345 0.46092004 0.43701512 0.41425216 0.17839256 0.037888557 0.3318193 0.22526377 0.20394292 0.53496355 0.11087585 0.007409647 -0.108714014 -0.07738607 0.42010638 0.7543194 -0.12988481 0.5119373 0.78369856 0.7734177 0.19442645 0.7744341 0.7195412 -0.020331025 0.09661521 0.041811727 -0.06987842 -0.2151137 0.08193785 0.17049265 0.13283248 0.1337477 0.3323146 0.54368734 0.20988321 0.16513643 0.6783419 0.31992918 0.5922701 0.48703265 0.47349808 0.41958353 0.23657745 0.10045656 0.40520036 -0.17660104 -0.23032619 0.58307594 0.6795057 0.061164826 0.6702186 0.6741345 0.5383891 0.6392956 0.25728124 0.41460758 0.41228613 0.11995745 0.44216692 0.4407981 0.20480765 0.23552856 0.34804693 0.40641755 0.4231264 0.45489538 0.26104164 0.24861915 0.08146169 0.034751996 0.5717633 0.5000461 0.5296464 0.5500195 0.5500392 0.5392477 0.50817364 0.46201766 0.48849648 0.49656165 0.47616613 0.48417544 0.51152223 0.48781607 0.4082595 0.4398393 0.469311 0.46823502 0.44139928 0.28267238 0.31285757 0.36733064 0.44488478 0.41208416 0.3711022 0.39064324 0.07201813 0.16258462 0.26221067 0.39105412 0.17826062 0.006686777 0.20204118 0.15692332 0.46161616 0.37343997 -0.24855004 -0.2083545 0.10187428 0.5395627 0.37057376 0.6928214 0.57440627 0.057726733 0.37659347 -0.019999593 0.3773443 0.019609615 0.023982257 -0.124546915 -0.1574966 0.015030175 0.11152179 0.07770583 0.382765 0.31336927 0.23929407 0.08679217 0.43362707 0.36180663 0.50442004 0.6092323 0.47185183 0.2869411 0.59277666 0.6012161 0.42853108 0.20541692 -0.25531757 0.48561138 0.5868619 -0.20053396 0.6416486 -0.0041657835 0.62418234 0.6619276 -0.033202417 -0.07851434 0.5175613 0.6117594 0.017738491 0.27388528 -0.1199617 0.15585527 0.3605567 0.37873363 0.35722506 0.47339398 0.28574005 0.34094888 0.36745632 0.515614 0.34868687 0.016483925 0.18277057 0.29946235 0.4002221 0.2905134 0.50733364 0.24492314 0.47253665 0.29681337 0.36950886 0.40238202 0.4411258 0.5441693 0.5435543 0.4735456 0.5119872 0.63366306 0.62835014 0.6158828 0.6220281 0.6630998 0.6730337 0.6617274 0.6836526 0.53745836 0.44313318 0.50311637 0.53693944 0.52137613 0.47874784 0.5445158 0.54640806 0.530777 0.49843162 0.34938496 0.4676434 0.40920514 0.47137687 0.5248717 0.46973872 0.38764688 0.4181562 0.3726703 0.37491617 0.30755258 0.3107847 0.15310583 0.11747357 0.17664675 0.08457816 -0.004611656 -0.088364564 0.24811068 -0.23014364 0.035283174 0.02259415 -0.02312107 0.4401464 0.3725486 0.28190592 0.3469766 -0.21281117 0.40381217 0.56987584 -0.3393138 -0.0067929476 0.34492123 0.41078958 0.51091605 0.57608575 0.5835248 -0.28140196 -0.47664988 0.010193754 0.021083416 0.31365275 0.37345934 0.50955963 0.5701948 0.5862514 -0.35528532 -0.011627339 0.07187014 0.18250714 0.34608498 0.41403285 0.56125605 0.5982366 -0.030491449 -0.05099588 0.0919496 0.32919812 0.4274401 0.5842281 0.6182169 0.32020035 0.2130499 0.058181904 0.3463334 0.2942807 0.29476824 0.440055 0.3740757 0.28898662 0.28161234 0.30687612 0.57215834 0.5421733 -0.18814439 -0.19632697 0.62575287 -0.19499409 -0.18906754 0.6690776 0.6589605 0.64407134 0.50408137 -0.073592745 0.25940573 0.14341493 0.48937035 0.51024866 0.46732223 0.58039427 0.155752 0.30244583 0.43727311 0.5494567 -0.26363096 0.2080773 -0.008104689 -0.21655142 0.26283675 0.14456768 0.30721682 0.33672556 0.16209705 0.26924407 0.3756016 0.46882024 -0.03990653 0.42354307 -0.052275617 -0.013691835 0.3228666 0.2892496 -0.07592556 0.38738722 0.4588579 0.44627208 0.4614093 0.53763044 0.4628631 0.48827553 0.54342264 0.64992493 0.5917131 0.60272115 0.6965773 0.694488 0.6702664 0.4611073 0.51824415 0.5353688 0.5546813 0.46388042 0.46219075 0.37596926 0.38742656 0.48587775 0.45477626 0.5139933 0.4963739 0.45630944 0.44330788 0.34746057 0.43604088 0.40572268 0.46914867 0.48899448 0.4533378 0.4630457 0.2584468 0.34790015 0.32078317 0.16829285 0.18873695 0.1958088 0.28907603 0.31643796 -0.028686635 -0.008350812 -0.3186049 -0.06315666 0.07319678 -0.1451616 -0.17275384 -0.18372814 0.3248586 -0.16877942 0.28401732 0.38922793 0.49564177 0.5707393 0.57554257 -0.05598331 -0.019204758 -0.06639934 0.22769235 0.5807644 0.58244616 0.087555684 -0.32375437 0.01044664 0.02864424 0.5932319 0.6005642 0.012081012 -0.14385907 0.6210323 0.63554424 -0.08040937 0.0087060295 0.6241821 0.6297244 0.31213057 -0.070612594 0.5323814 0.57605755 0.59814405 0.33855546 0.29982984 0.29743576 0.39482915 0.5870321 0.5253091 0.20765254 0.21211505 0.24374177 0.264217 0.65769815 -0.15893412 0.002118614 0.1460674 0.70161456 0.67775005 0.5623119 0.4107837 0.32944888 0.018807046 -0.09291588 0.43163377 0.21291867 -0.28654733 0.052778058 0.20439577 0.42829293 0.2635773 0.09561576 -0.11959842 0.30060178 0.26261964 0.15197739 0.32469428 0.28197187 0.19575764 0.15078741 0.12257783 0.17395413 0.2961499 -0.10201768 -0.09783305 -0.08564742 0.25784585 -0.06474875 -0.06129969 0.19295277 0.3596841 0.40081877 -0.07879707 0.35359168 0.38301718 0.43809518 0.24192344 0.4531699 0.4771401 0.50450385 0.59135854 0.5649313 0.69106185 0.70128834 0.6674055 0.4804932 0.51532954 0.4967856 0.40509337 0.48676005 0.57485676 0.5839536 0.4686057 0.47834432 0.39509213 0.55778193 0.5229676 0.44898897 0.4196419 0.43079823 0.43448234 0.33729076 0.41615885 0.29802763 0.35529554 0.22840011 0.19738221 0.09252583 0.0038600443 -0.031784702 0.24366225 -0.08137352 0.2059205 0.24876034 -0.21855155 0.24704306 0.43693942 0.50103766 0.1522719 0.10121907 -0.18664134 -0.051860206 0.046617232 0.54879165 0.55593455 0.54320925 0.22188301 0.5575578 0.57275873 0.096619844 0.6133164 0.04705328 0.13337453 0.15012778 0.64541614 -0.03182113 -0.0002455227 0.61659986 0.03984959 0.52652264 0.570945 0.25263765 0.4444751 0.44133818 0.5372355 0.18081701 0.22070307 0.2141721 0.6693039 -0.067348205 -0.006466374 0.101383284 0.1577273 0.18129832 0.73039025 -0.050585687 0.026701659 0.6754756 0.5031044 0.07340013 0.09975972 -0.07987915 -0.0058891475 0.044451647 0.2889768 0.29597384 0.32917735 0.21237397 -0.076135226 0.39486018 0.2997371 0.24419011 0.35393038 0.4061549 0.48521447 0.19537821 0.36215627 0.5222113 0.07962903 0.15340392 0.43470058 0.15322939 -0.13065077 0.13942067 0.3823735 0.49999964 0.2193543 0.5097774 0.6140461 0.6539533 0.36010087 0.59492564 0.6486342 0.42953366 0.44196188 0.55288684 0.62482905 0.658584 0.67570126 0.5997994 0.5254115 0.57835394 0.4612643 0.47935963 0.45465496 0.35813093 0.43015116 0.49629277 0.588151 0.64778507 0.624956 0.4349687 0.45123214 0.589007 0.34532195 0.38613123 0.3814128 0.35844922 0.25810292 0.28329074 0.25827867 0.34388244 0.0669405 0.31484672 0.17374885 0.23516619 0.08651653 0.2695713 0.26735628 -0.28283602 0.18322085 0.23525836 0.009553086 0.13569494 0.2532305 0.37627232 0.13719073 0.19891697 0.12621495 0.48950934 0.1992107 0.2240071 0.52854437 0.07002817 0.59039783 0.21169204 0.58372235 0.2905084 0.47350395 0.53072405 0.3283745 0.32124895 0.43204165 0.19572246 0.18507344 0.18850687 0.066867486 0.62347156 0.36130655 0.18800327 0.173431 -0.11007372 0.33217344 0.28696406 0.39164567 -0.102651 0.017158568 0.07364928 -0.18637164 -0.04459183 -0.005272977 0.22067818 0.27151394 -0.07654673 0.67032087 0.43957 0.27911824 -0.14732186 0.69810224 0.65428746 0.31872624 0.3585431 0.52848583 0.26039326 0.31214565 0.6235294 0.22135098 0.6260959 0.054598235 -0.13289027 0.5155123 0.57757366 0.38169777 0.63961136 0.6496715 0.65019375 0.38199586 0.17833495 0.53359157 0.60859704 0.62801075 0.56283355 0.59660333 0.5437101 0.55940026 0.42954323 0.40732574 0.39003083 0.36307824 0.4932757 0.59183383 0.64043283 0.64591944 0.35265738 0.37690187 0.2462052 0.6073536 0.61183375 0.20226608 0.3254202 0.3368423 -0.10547872 -0.041675895 0.3454502 0.38218963 -0.14609857 0.38646364 -0.11169405 0.5283164 0.552528 0.19070157 0.08130102 0.3903051 0.5236499 0.25173473 0.21391064 -0.1979573 0.19291553 0.37815505 0.34684986 0.18675095 0.24873903 0.13164388 0.26414126 0.27884132 0.23938735 0.24702913 0.37048912 0.23269011 0.2754932 0.45524922 0.18032274 0.18235245 0.52155364 0.33776778 0.30490577 0.5529412 0.5405407 0.39418006 0.44331712 0.5418093 0.2421669 0.70482737 0.6102856 0.1685197 0.18425545 0.17929609 0.16509403 0.098321736 -0.122779086 0.032746807 -0.10773408 0.5077623 0.5524404 -0.054191984 -0.10103188 -0.06132958 -0.17938945 0.47263932 0.5592758 0.57531327 0.5981279 0.8446622 0.81003463 -0.012910206 -0.081658386 0.8392492 0.77932453 0.62638086 0.40493384 -0.15667716 -0.1302654 0.02963233 0.7914468 0.035506874 0.7271368 0.4213016 0.4276833 0.6622821 0.5546653 0.6470429 0.65889126 0.2142793 0.71700394 0.15628187 0.651268 0.6890718 -0.11401339 0.49675897 -0.091680184 -0.044090807 0.56416845 0.614362 0.6007228 0.101570144 0.28241023 0.30553955 0.501893 0.5669115 0.59382504 0.34308213 0.5392344 0.60086906 0.27139896 0.27363163 0.238534 0.23124471 0.3647098 0.48228574 0.56297135 0.55496395 0.18719602 0.27181914 0.2761189 -0.043248672 0.45018 0.20922011 0.42807382 0.40535197 0.41060212 -0.06299229 -0.12681541 0.36606067 0.5066061 0.5870618 0.6039187 0.6354987 0.58132255 0.15263683 0.15345971 0.43409866 0.38679227 0.14379478 0.11089829 0.3251403 0.2906901 0.14848474 0.075475425 0.1820583 0.23465316 0.17107022 0.2527176 0.24708173 0.3696317 0.4069328 0.26549143 0.12799133 0.16125976 0.45172608 0.611748 0.5174686 0.3854481 0.46232015 0.72447395 0.6300528 0.739529 0.7266668 0.2076525 0.7405914 0.7362479 0.28096035 0.78837645 0.70243967 0.13507383 0.22162871 0.24813686 0.1189006 -0.15169944 0.53729826 -0.13510576 0.61552584 -0.05716849 -0.16540024 -0.050436035 -0.14463478 -0.16016036 0.18285155 0.62469625 0.6306565 0.9164393 0.7811279 0.6319001 -0.6051296 -0.08821539 0.47342217 0.619863 0.8377744 0.8947822 0.3118201 0.05111277 0.77053434 -0.19423398 0.7153462 0.65785915 -0.23498997 -0.020666331 0.61336565 0.47367787 0.096797585 0.15203153 0.60250545 0.66737056 0.7581942 0.28190094 0.23687387 0.772931 0.24333534 0.19063056 0.05507616 0.7107878 0.7461443 -0.056610893 0.07181436 -0.10714434 -0.1019685 0.21471688 0.32020557 0.4706358 0.5251664 0.12499686 0.5225905 -0.039448407 0.14818965 0.25077432 0.44492385 0.5150793 0.5194552 0.34815717 0.29351187 0.20076618 0.12015396 0.2965735 0.27924493 0.18580234 0.012731805 0.024540234 0.07598324 0.043431424 0.3629484 0.34602225 0.24981573 0.33722708 0.35469893 0.31218913 0.4646719 0.49141395 0.3017123 0.13604072 0.6847831 0.69662046 0.638417 0.57992965 -0.12289651 0.50804096 0.060526207 0.39772105 0.042816393 0.07157937 0.3270384 0.08896947 -0.1102242 0.2745862 0.020748824 0.17012429 0.21775788 0.16056088 0.15170756 0.16675545 0.73235637 0.5635722 0.5540762 0.40385705 0.32877955 0.27227175 0.7575561 0.7587269 0.7648306 0.76179224 0.4185416 0.77158874 0.8067636 0.370579 0.4209343 0.8427081 0.32792267 0.19003636 0.1864022 -0.024029216 0.21931183 0.2881609 0.38347948 0.83294266 0.7706937 0.56307584 -0.011494553 -0.06442458 0.5700619 0.8727324 -0.026200816 -0.17186874 0.25916025 0.5908323 0.59918165 0.9126411 0.89258534 0.62602484 -0.11648281 -0.052238822 -0.053810436 0.117075354 0.13853027 0.559384 0.6101341 0.8341143 -0.11837994 -0.22915027 -0.41626275 -0.16574971 0.7189703 0.6305797 -0.30665275 -0.24969664 -0.18325011 0.6639391 0.5837646 -0.58451444 -0.4227741 0.52029955 0.32288638 0.50863343 0.58652914 0.2943117 0.7084322 0.74275696 0.28260335 0.059965663 0.3392611 0.36389422 0.038482048 0.37044412 0.43708342 0.46175855 0.4027193 0.41238356 0.43378347 0.25052088 0.44568056 0.46406108 0.4921273 0.21994622 0.35010892 0.33594504 0.3127796 0.38747165 0.32897276 0.1848487 0.014817931 0.22074395 0.15830557 0.16621512 0.40200463 0.3724073 0.09891155 0.26167712 0.40187836 0.47162503 0.39333326 0.50334084 0.5173101 0.52770805 0.24626078 0.22677365 0.5079216 0.60388875 0.58053374 0.54840195 0.5050727 0.5044955 -0.03375131 -0.2809316 0.4335168 0.39801967 -0.13485047 0.36462098 0.33820695 -0.20461464 -0.36281362 0.27597266 0.07344958 0.08223908 0.059948236 0.74129605 0.6736842