# vtk DataFile Version 2.0
Really cool data
ASCII
DATASET POLYDATA
POINTS 7857 float
46.341125 14.891233 -7.265363
46.297623 14.803453 -6.6291213
46.25668 15.991455 -7.8044267
46.037106 15.57153 -7.2168584
45.944717 15.710149 -6.5500345
46.173946 15.625813 -5.7086287
46.071518 16.427046 -7.3532543
45.89219 16.38607 -6.6125045
46.11437 16.391602 -5.712191
46.35033 16.37284 -5.2276754
46.008682 16.808798 -6.678518
46.33189 17.05392 -5.576569
47.262135 14.069929 -8.929531
47.154465 13.946645 -8.446932
46.869816 14.013686 -7.423219
47.043633 13.732371 -6.7170196
47.225525 14.619246 -9.087848
46.864254 14.554097 -8.534606
46.498005 14.621765 -7.4680076
46.71638 14.327811 -6.5289474
46.606567 14.607504 -5.8257947
47.000313 14.759851 -4.9856653
47.11646 15.27893 -9.06125
46.80415 15.0503025 -8.708075
46.44509 15.3733225 -5.325555
46.74007 15.537617 -4.9923553
46.759087 16.303925 -8.231034
46.61563 16.379015 -5.0048127
46.81085 16.988415 -7.8556557
46.438957 17.028801 -7.363763
46.422634 17.029526 -5.509518
46.43657 16.820475 -5.2482266
46.99855 18.672665 -6.308736
46.992336 19.112059 -5.3981876
47.224876 19.941572 -7.0054007
47.02749 19.357004 -6.6316075
46.72517 19.6632 -5.583216
46.98918 19.793175 -4.8508368
47.21718 20.601816 -7.030293
46.856823 20.624203 -6.3218994
46.765015 20.41274 -5.570362
47.08729 20.31693 -4.783078
47.239544 21.412472 -6.9237027
47.077896 21.442524 -6.2164836
47.166332 21.312433 -5.624146
47.339725 21.261263 -4.9577494
47.359253 22.113192 -6.889627
47.338802 22.319078 -6.4497914
47.268723 21.966982 -5.952256
47.892673 13.242733 -8.235785
47.824337 13.101031 -7.549881
47.946976 12.923154 -6.7443304
48.063282 12.962173 -5.6619043
48.254124 13.187958 -4.735289
47.796303 13.893742 -9.087618
47.49461 13.577409 -8.468876
47.48423 13.528106 -6.402844
47.708317 13.673269 -5.3380823
47.758774 13.80566 -4.9109716
47.82689 14.848013 -9.657387
47.516407 14.406284 -9.259761
47.406338 14.690361 -4.619992
47.944782 14.530799 -4.252383
48.138996 15.588215 -10.109887
47.4659 15.210107 -9.495342
48.031345 15.241447 -4.1307755
48.358555 16.446218 -10.632881
47.706036 16.086336 -9.334957
47.448902 16.515413 -8.497335
47.515133 16.086754 -4.559696
48.035034 17.059324 -8.431979
47.959686 18.09665 -7.77582
48.28617 18.356554 -3.3374693
48.0825 18.83318 -2.868732
48.311775 19.240395 -7.6748214
47.925545 19.374683 -7.471405
47.703346 19.439312 -3.6896973
48.02379 19.42496 -2.6336873
48.37397 19.715315 -1.9503914
47.62681 20.334173 -7.547981
47.472675 20.463135 -4.4086847
48.380142 20.777021 -2.0701287
48.422398 20.462786 -1.6568054
48.006424 21.162563 -8.039041
47.691742 21.625893 -7.3967304
47.596634 21.08463 -4.542058
47.715347 22.391949 -7.231858
47.489086 22.63768 -6.478011
47.56045 22.485622 -5.8128595
47.914948 21.941969 -4.898042
47.892307 22.979446 -6.889902
47.77822 22.964746 -6.493269
48.156654 23.031124 -5.7202086
49.025383 12.357011 -7.012097
48.90821 12.037289 -6.0856147
48.958538 12.048479 -5.6900263
49.062496 12.236212 -4.982828
48.790726 13.284325 -8.825718
48.62903 12.90559 -8.191425
48.599007 12.653173 -7.322935
48.433727 12.517623 -6.6431236
48.513767 12.526852 -5.623151
48.810997 12.637555 -4.7610464
48.87948 13.071 -4.285362
48.773655 14.138925 -9.683723
48.372593 13.799066 -9.231715
48.345818 13.533927 -4.593126
48.78521 13.802793 -4.060335
48.69005 14.762033 -10.0068655
48.22135 14.263776 -9.4833145
48.659584 14.534388 -3.859569
49.037193 15.8037 -11.274806
48.65647 15.54667 -10.578791
48.292633 15.428287 -4.137574
49.153934 16.426706 -11.631121
48.85694 16.508171 -11.277561
48.449703 16.09596 -10.751938
48.81479 16.742338 -4.4420385
49.04614 17.064325 -11.421214
48.468155 17.12929 -10.609274
48.78534 17.8417 -3.4993806
49.366814 17.913729 -11.045289
49.029564 18.196163 -10.005875
48.781265 18.395426 -9.354992
48.566895 18.478773 -2.4780784
48.951866 18.884048 -1.7385111
48.944824 19.53325 -8.743454
48.521652 19.644434 -8.39851
48.62324 19.72627 -1.5106827
49.08929 20.011417 -0.8138535
49.226948 20.087845 -8.77901
48.467197 20.612667 -2.4414778
48.548233 20.584976 -1.3602179
48.891834 20.64159 -0.8315519
48.54273 21.469181 -8.304595
49.07711 21.303165 -3.0509357
48.742947 21.055222 -2.4443495
48.775463 21.278568 -1.4557711
48.966957 21.245506 -0.89410955
48.79651 22.360413 -8.031747
48.30011 22.687914 -7.533691
48.50227 22.091095 -4.871412
49.252502 21.853155 -1.3083963
48.292274 23.050335 -7.172104
48.31633 23.045675 -5.7050304
49.45185 26.341124 -5.2701335
49.473408 26.706017 -4.667143
49.374207 12.299586 -7.1927495
49.50244 11.915501 -6.3677654
49.592724 11.81213 -5.47979
49.63107 12.021433 -4.9051814
49.48132 12.903924 -8.08766
49.4272 13.086855 -3.979947
49.895744 14.333689 -9.758041
50.13155 13.54658 -3.4288127
49.94687 13.960497 -3.3535385
49.675304 15.091572 -11.011024
49.588417 14.664796 -10.366928
49.614082 14.628562 -3.5887928
50.147896 14.602647 -3.3805466
49.74008 15.941281 -11.763563
49.479893 15.562343 -11.4456415
49.51656 16.43841 -11.809857
49.7695 17.495502 -11.852798
49.619328 17.734364 -2.5493703
49.913483 18.175325 -1.9541881
50.261513 18.671474 -12.101434
49.799156 18.519499 -11.418742
49.500214 18.767464 -1.5796003
50.0591 19.217348 -0.9267034
50.102314 20.11772 -12.0365305
49.53517 19.723532 -0.7437493
49.883595 20.063673 -0.37596524
50.09709 20.592808 -12.24914
49.81654 20.667332 -11.620701
49.82875 20.297817 -10.275825
49.912224 19.9772 -9.550836
49.64615 20.609226 -0.2859466
50.315853 21.241732 -12.725001
50.02501 21.495268 -12.224884
49.833767 21.545042 -11.653327
49.438328 21.362356 -0.5081404
49.749783 21.202183 -0.28243002
50.019993 21.987356 -11.892507
50.095024 22.155367 -11.662248
49.99286 22.12029 -10.839399
49.15263 22.182676 -4.5181108
49.63743 21.999237 -2.0028856
49.559067 21.955149 -1.4131441
49.657654 21.737034 -0.6069007
50.037308 23.589523 -5.506275
49.45827 22.920568 -5.2319922
50.290802 24.758848 -7.253098
49.970688 25.878643 -7.5522294
49.7796 25.708443 -6.3381257
49.608402 26.10066 -4.4082403
50.26566 25.374289 -4.103865
50.241657 26.504541 -7.8493233
49.76705 26.426657 -7.203289
49.566227 26.507895 -6.5344815
49.585682 26.582186 -5.449295
49.567352 26.544243 -4.511745
49.852734 26.59691 -3.7989664
50.26867 26.841797 -7.839592
50.067112 27.10833 -7.1961575
49.82053 27.093258 -6.4745383
49.79735 27.277367 -5.511708
49.81117 27.31187 -4.5199313
50.03097 27.223228 -3.8418415
50.295753 27.677076 -6.6996655
50.186565 27.751614 -5.7375913
50.218822 27.742643 -4.428686
50.505955 12.04803 -6.8453298
50.340122 11.859005 -6.284994
50.256187 11.778713 -5.476588
50.825687 11.932788 -4.7988405
50.979675 12.283594 -4.0221205
50.42804 12.577052 -3.9419246
50.796024 13.152296 -3.3014815
50.655754 14.419296 -9.766258
50.56558 13.475017 -8.104992
50.735962 13.352277 -3.200912
50.11159 15.121221 -11.108971
50.41651 14.078159 -3.1159453
50.14692 15.945606 -11.766915
50.38553 15.43658 -11.449272
50.572803 15.199391 -3.4764423
50.941074 17.114086 -12.14427
50.627224 16.038755 -3.4035685
50.57242 17.695253 -12.238486
50.614967 18.533916 -12.327953
50.32394 18.590446 -1.4727025
50.6755 18.93997 -0.9911579
50.683254 19.918692 -12.5764475
50.592224 19.90815 -0.24326655
50.650177 20.812922 -12.9616165
50.367382 20.69507 -0.08123967
51.24287 21.69961 -13.793443
50.79439 21.50355 -13.234627
50.706028 21.211302 -0.032199115
51.232544 22.269894 -13.791483
50.944126 22.379591 -13.315078
50.585026 22.335718 -12.501973
50.524357 22.39642 -10.494195
50.322224 22.183298 -1.5507765
50.427563 22.29732 -0.97909766
51.141773 22.789267 -13.215699
50.930183 22.81689 -12.297442
50.49806 22.68855 -11.384679
50.875946 22.83854 -10.359245
50.57938 22.982504 -8.917118
51.3501 23.432016 0.457155
51.369633 23.848656 -9.225112
51.295666 24.152084 -8.750524
50.802708 25.663712 -8.084542
50.922955 25.976463 -3.134128
51.006187 26.35526 -8.3478775
50.602673 26.466957 -3.1498992
50.919456 27.238766 -8.044306
50.386837 27.387775 -7.27727
50.574028 27.478447 -3.463593
50.67305 27.31737 -3.244249
50.82231 27.796171 -7.220817
50.57449 27.881123 -6.452389
50.6332 28.062557 -5.536281
50.502487 28.027786 -4.5509243
50.72797 27.856245 -3.7960656
51.397587 12.140041 -6.271003
51.090733 11.868228 -5.3306985
51.609364 12.028908 -4.723244
51.054737 12.277376 -4.105888
51.277798 12.703211 -3.6146593
51.41537 12.96867 -3.3462064
50.822758 13.86677 -8.057328
51.606293 13.731442 -3.0551023
51.317863 14.911466 -10.063145
51.844513 14.783101 -2.764968
51.184624 16.214333 -11.72741
51.174404 15.693687 -11.412556
51.79217 15.354371 -2.7254233
51.17289 16.252092 -11.788615
51.656834 16.700317 -2.7664495
51.593815 17.569752 -12.232306
51.44668 18.24413 -1.9217374
51.626266 18.549187 -12.535196
51.997738 18.603237 -1.2788451
51.838875 19.834558 -13.246308
51.479824 19.536545 -0.62279505
51.874058 19.821392 -0.37507367
51.57488 20.806149 -13.843719
51.50214 20.589817 -13.498775
51.582672 20.67778 -0.054701418
51.70363 21.654215 -14.199694
51.76181 21.735838 0.15772551
51.750515 22.31442 -14.1764345
51.36556 22.676142 -13.703125
51.3611 22.416174 -3.3570797
52.058178 22.969809 1.3281498
51.78116 22.959648 -13.935573
51.706978 23.090292 -13.592765
51.61931 23.332193 -12.566168
51.861317 23.511494 -11.542465
51.531357 23.493422 -10.614993
51.283276 22.644579 -2.1454527
51.925335 23.01671 -1.4689118
51.517197 23.70645 -0.147517
51.49696 23.792568 0.6561638
51.862896 23.41786 1.2142168
52.23968 23.518082 1.627259
52.164875 23.586805 -12.632383
51.740723 23.670918 -10.803714
51.6528 24.145933 -9.701375
51.4352 24.427214 -3.949626
52.143208 23.893091 -2.0790634
52.187138 24.080976 -1.5200086
51.883 24.150318 -0.52916616
51.848686 24.340992 0.4492272
52.10812 24.139688 1.2585675
51.840908 24.898785 -9.135009
52.139538 24.832323 0.12920217
51.580826 26.737133 -8.622863
51.399933 26.669317 -2.6996653
52.084404 27.409435 -8.9559965
51.69589 27.513828 -8.386343
51.525883 27.395748 -2.8809354
51.80505 28.053148 -7.719408
51.560795 28.487572 -6.14459
51.36775 28.528715 -5.547287
51.545982 28.415445 -4.3700247
[...]
POINT_DATA 7857
SCALARS features_00 float 1
LOOKUP_TABLE default
0.5937857 0.59790474 0.5959375 0.64826214 0.65264446 0.5920963 0.6149792 0.6353804 0.57751215 0.5499638 0.580552 0.488492 0.46966314 0.5039954 0.5234852 0.49899626 0.44701457 0.5102887 0.566027 0.53954494 0.54472893 0.48185593 0.43054867 0.49384 0.5516362 0.51365185 0.48096687 0.5128234 0.3741207 0.4705493 0.48703834 0.5075609 0.338787 0.3931136 0.41115558 0.41424322 0.47804987 0.3976256 0.47068042 0.53169346 0.50679445 0.41928986 0.51747257 0.5439344 0.5293945 0.47268575 0.53526473 0.5571136 0.55121565 0.48620456 0.47727633 0.46806973 0.48956585 0.46454042 0.44402355 0.49297202 0.48410946 0.4643564 0.4459018 0.398232 0.43274578 0.43793583 0.39698923 0.38119256 0.39379966 0.35431617 0.39529637 0.34655076 0.35236183 0.39727348 0.14473233 -0.036240995 0.36399245 0.41891295 0.11733726 0.20184834 0.33319616 0.44270444 0.55456376 0.34865865 0.34792426 0.5460154 0.6033811 0.38059923 0.4825955 0.3729102 0.5202769 0.56150746 0.55299085 0.4647919 0.55348074 0.56740767 0.54242253 0.4679404 0.5144292 0.5312838 0.5433689 0.43696728 0.46510494 0.45922667 0.47505224 0.51011527 0.5113343 0.46519798 0.3906446 0.41826433 0.44021183 0.4023181 0.39898416 0.40714055 0.35164344 0.47957864 0.42471987 0.3129525 0.4955153 0.4646293 0.42426074 0.06845261 0.45948508 0.35457528 0.27530956 0.35215265 0.0893655 -0.105612725 0.44887853 0.51416254 -0.06776322 0.055043258 0.5971168 0.6466699 -0.009962704 0.48808026 0.6366899 0.6786813 0.35871777 0.3313923 0.48819053 0.6212224 0.6770887 0.4129337 0.49173838 0.4116799 0.59346867 0.51617587 0.53201383 0.5591347 0.6016407 0.461221 0.51011765 0.5546492 0.5614276 0.4551223 0.47035658 0.36088356 0.42287502 0.37559408 0.47635764 0.42456448 0.30732378 0.28609338 0.5249952 0.5039921 0.5177212 0.48097935 0.3126272 0.3422445 0.31609 0.28224978 0.4661134 0.44054183 0.28649652 0.58819294 0.5768172 0.36252365 0.36222056 0.10908148 -0.124294564 0.6566674 0.44057167 0.44389197 0.42770937 0.6988082 0.6861676 0.4394693 0.41897765 0.3454846 0.25570256 0.4314863 0.5466146 0.6696867 0.16137026 0.324642 0.32353672 0.4380211 0.49584672 0.6091138 0.5746881 0.40943605 0.48118487 0.5103692 0.55426836 0.61109513 0.6291728 0.41516048 0.47056615 0.5116484 0.5470545 0.5988493 0.61435556 0.4729423 0.5152368 0.5801524 0.47002876 0.5051761 0.533507 0.47383493 0.44358033 0.4932819 0.43761364 0.3130672 0.3513669 0.4193451 0.4722336 0.3367721 0.51540077 0.4797225 0.19302706 0.42911512 0.07646433 0.44993424 0.3361159 0.31967035 0.30772012 0.26875496 0.4316068 0.40807623 0.54744816 0.5043502 0.47485662 0.517334 0.5243028 0.5067916 0.4652455 0.26198786 0.35696295 0.42251515 0.5016829 0.4214051 0.3456955 0.18452607 -0.059235893 0.45451733 -0.0415115 -0.080580294 0.26023304 0.4873944 0.2670911 0.555774 0.36566526 0.4457875 0.56511647 0.5456411 0.41231138 0.45828664 0.48659778 0.545127 0.54667664 0.41050127 0.4500199 0.37032118 0.43595755 0.41382897 0.40010723 0.2731955 0.3321591 0.32047528 0.11986749 0.37851995 0.38586605 0.04407098 0.38125896 -0.13994582 0.3298767 0.10800825 0.26687604 0.12400833 0.31400988 0.23932452 0.19666055 0.46120334 0.41946745 0.24568179 0.5323092 0.19178337 0.55058897 0.52875006 -0.085375346 0.46173912 0.53883094 0.5192417 0.41589135 0.2598257 0.13715717 -0.010484815 0.00612057 0.32336277 0.51096594 0.55078924 0.53533596 0.39898944 0.14601663 -0.020229131 0.20494118 -0.06623792 0.06413176 0.27534568 0.47975165 0.57052916 -0.08827104 0.41115105 0.23717573 0.40467426 0.31737956 0.32162768 0.4330264 0.33500144 0.35028267 0.39788634 0.43616253 0.47127157 0.4880651 0.3233708 0.24573323 0.26574022 0.30615792 0.27396885 0.14381628 0.14981738 0.2679118 0.22624345 -0.037941758 0.24358863 -0.17949486 0.27013755 0.16692746 -0.07391491 0.28060856 0.22007716 0.04490269 0.09027608 0.44740933 0.09837317 0.64757395 0.57147455 0.65925276 0.1027066 0.6095978 0.5799778 0.31706816 0.4086814 0.5413329 0.4972427 0.47866148 0.43579227 0.3932745 0.17591467 0.028060898 0.5032015 -0.027471174 -0.009879325 0.3067013 0.45763874 0.4847102 0.48986542 0.28132007 0.25320446 0.27510062 0.404197 0.4551769 0.36921096 0.36048102 0.35975754 0.40044254 0.38745967 0.3438319 0.38971215 0.3595142 0.38842276 0.35843942 0.21613939 0.23818627 0.28339568 0.29884338 0.30769357 0.4391878 0.36245048 0.08620134 0.05116716 -0.03443276 0.62061477 0.67543656 0.65831625 0.4169137 0.44845498 0.019887209 -0.010651991 0.4584291 0.63989246 0.68274665 0.66615194 0.6116816 0.32520068 0.023295552 0.54036987 0.6333484 0.60907763 0.60113585 -0.080790915 0.1807441 0.46313876 0.47414488 0.5289268 0.13915147 0.03181028 -0.26242346 0.046564333 0.051768765 0.15276161 -0.30158526 0.47557986 0.06296399 0.556734 0.03550425 0.711785 0.040117785 0.6994475 -0.020891963 0.19389129 0.6362853 0.24329631 0.31315243 0.5658809 0.5244681 0.45240816 0.35792923 0.3909928 0.2966325 0.46311545 0.40053013 -0.16946355 0.44368738 0.39258808 0.28660634 0.22317246 0.3487671 0.39982194 0.40221542 0.37759745 0.2771069 0.2529073 0.41031653 0.40270615 0.38365594 0.36292335 0.32146177 0.18958798 0.16159901 0.21513237 0.27248368 0.2403285 0.3314545 0.2788396 0.3471538 0.33424985 0.14413594 0.117708795 0.0040420983 0.50044227 0.5760479 0.5865389 0.5650397 0.40026516 -0.10580407 -0.11137868 0.30784753 0.47235143 0.6247287 0.57430655 0.4336086 0.5836374 0.33135575 0.5366503 0.23461115 0.46522367 0.43595684 -0.16032177 0.09579258 0.07941477 0.321783 -0.026497427 -0.08617956 -0.3024932 -0.14686681 -0.0861127 -0.1694102 0.3794284 0.19400397 -0.027263701 0.574777 0.48614988 0.6370189 -0.24321902 0.73315454 -0.13802505 0.08121308 0.6459691 0.22145063 0.58915967 0.46691334 0.3097558 -0.32219374 0.34048167 0.38192502 0.32844016 0.17157763 0.24698555 0.2518075 0.33896205 0.32307237 -0.0069874153 -0.09379243 0.13816194 0.37637967 0.032746814 0.35817292 0.33276677 0.15717246 0.1274148 0.08953816 0.3509957 0.3211716 0.28702235 0.13957818 0.50954175 0.49933785 0.52216494 0.51081574 0.17623904 0.47550634 0.32706606 0.26777148 0.16670716 -0.0413441 0.43592143 0.39632702 0.5327266 0.5304409 0.39955372 -0.13864219 0.5385951 0.5347837 0.46007806 0.51126516 0.44272882 0.3817299 0.44884223 0.44442087 0.23141038 0.3987658 -0.21787861 0.30050945 -0.19352677 -0.095289834 -0.20925355 -0.21782428 0.41725636 -0.2870229 -0.21517734 -0.2224909 0.48650762 -0.058264703 0.021818673 0.6409373 0.49755365 0.42111748 -0.05369155 0.035146836 0.2709518 0.7051766 0.13658088 0.6805359 0.30096447 0.5406686 0.17786878 -0.14580753 -0.1235461 -0.2296435 0.19300312 0.4528013 -0.13469851 -0.18647945 0.033105962 0.0887081 0.5314235 0.5971089 0.6042583 0.16542692 0.6519056 0.6844504 0.66557264 0.65114397 0.2435507 -0.13268602 0.19941647 0.21094999 0.6707926 0.6955235 0.69819826 0.27264747 -0.11743124 0.20972171 0.26537815 0.2852966 0.06515451 0.10038286 0.04531707 0.25090882 0.2422905 0.20507187 -0.053568725 0.04730785 0.17641027 0.10957331 0.44064772 0.34626386 0.33100098 0.3364545 0.32090604 0.3638764 0.41073614 0.41836476 0.44264317 0.42838445 0.40206373 0.5158721 0.4523402 0.44574904 0.42272606 0.4951937 0.49170843 0.46608803 0.40904713 0.5360975 0.47133416 0.4116557 0.40413907 0.3587253 0.28322846 0.43083167 0.4855821 0.5176437 0.4967283 0.45467573 0.3457847 0.32232264 0.26861116 0.39827645 0.4136397 0.45280713 0.45337698 0.18063721 0.15109172 0.12086521 0.062245414 0.22071429 0.48363632 0.36529243 0.3742985 0.31034857 -0.08604622 -0.093066044 0.24290827 0.5105612 0.5167497 -0.11940029 0.5126032 0.35927936 0.4430499 0.34665805 0.40107346 0.19396296 0.28782248 0.36401558 -0.22755429 0.25297636 -0.17539544 -0.014564753 -0.17935348 -0.23649694 -0.04224713 0.007030111 -0.3016922 0.07826091 0.079906546 -0.43025362 0.13475229 0.3206671 0.48046395 0.6163312 0.53532577 0.5882324 -0.014640171 0.4136685 0.5406459 0.1105385 0.057033744 0.35864913 0.3928405 0.2536155 0.29137373 0.19558755 0.029440328 0.3709097 0.39434618 -0.16319384 -0.21360984 0.0824274 0.43088722 0.46661347 0.4304456 0.18788457 0.55543387 0.60874826 0.6100857 -0.003293179 0.23507392 0.23810452 0.21623935 0.6177053 0.6626933 0.6873095 0.70023394 0.66458 0.16412017 0.0782336 0.22357073 0.24280053 0.25110346 0.6678597 0.6868033 0.6956631 0.091084376 0.108659394 0.06455889 0.081988454 0.056386136 -0.055973727 0.12023179 0.14177127 0.27285537 0.28965104 0.25456244 0.23164359 0.37363523 0.38253683 0.33251548 0.6682093 0.6401583 0.5549956 0.47122598 0.6629555 0.61980945 0.5567618 0.49945083 0.44089556 0.5877831 0.4675402 0.44208875 0.4610045 0.4341187 0.5125765 0.44484448 0.44068134 0.3574399 0.38852125 0.35544357 0.58495 0.56055653 0.47537923 0.29678842 0.24133858 0.5923472 0.5773833 0.53122056 0.48292065 0.45568556 0.4302174 0.4316212 0.4571976 0.54137766 0.53937787 0.3499912 0.38286147 0.21034515 0.09860225 0.49594298 0.52544975 0.40708452 0.32724816 0.20392686 0.4035347 0.45558584 0.48900133 0.5058073 0.34873652 0.37133217 0.286637 0.14549118 0.16483635 0.3246125 0.11855104 0.110007286 0.23653379 0.3231826 0.39379835 0.3900569 0.37985843 0.3645556 0.3521657 0.2255876 0.2679236 0.25359276 0.21787497 -0.0040805154 0.13554972 0.1491642 0.33627328 0.34900653 0.43173 0.31654805 0.31141233 0.3069245 0.23784868 0.21321277 0.20528582 0.2194082 0.2772264 0.24676222 0.28566286 -0.09873866 -0.16113776 0.03928703 0.44850472 0.4508478 0.26454484 0.2830473 0.072189495 0.13986613 0.18247613 0.2914119 -0.24773315 0.45057732 0.06505262 0.09626692 0.27695966 0.39069575 0.17459746 0.26632544 0.2823621 0.27809232 -0.26262027 -0.26959997 0.16769937 -0.15897506 0.46226978 0.44099665 0.48058704 0.5208692 0.533656 -0.2771714 -0.00069152657 -0.06378384 0.48689115 0.5418943 0.5625435 0.46805638 -0.43509042 -0.35904527 0.22781852 0.4033848 0.39797145 0.52658015 0.35811514 -0.45087314 0.32847804 0.47997278 0.5359001 0.347576 -0.10180151 0.5845704 0.030947164 0.019571323 0.5881854 0.05373425 0.06184383 0.48458248 0.25929946 0.22136603 0.28747764 0.29665563 0.13025334 0.32488525 0.37099558 0.20417826 0.20743616 0.4212346 0.47318572 0.2439774 0.17748675 0.61275613 0.6380923 0.24921004 0.23692635 0.63728005 0.65949994 0.6688477 0.6533197 0.10060735 0.07276111 0.030013606 0.18323043 0.15946805 0.15936142 -0.070374675 0.24542023 0.27038768 0.2680541 0.17370455 -0.033431523 -0.0057896525 0.1466588 0.22719377 0.16173111 0.29187638 0.35918745 0.39863706 0.3674144 0.28159428 0.25365108 0.38163912 0.40444925 0.37940013 0.5433437 0.47558814 0.66206384 0.6052436 0.52179205 0.45136088 0.4052413 0.36434644 0.6565781 0.6708839 0.40744504 0.36814234 0.58698004 0.3773633 0.35193285 0.40811524 0.33149624 0.27349144 0.21392822 0.6062679 0.5882126 0.5308902 0.4446696 0.34998095 0.4313823 0.5143569 0.6093886 0.30349377 0.039418735 0.5284749 0.39533633 0.34504282 0.3478403 0.42259642 0.48597848 0.584384 0.5582422 0.36908358 0.05683492 0.058695927 -0.008650189 0.31176433 0.34762698 0.1422849 0.2979349 0.35799634 0.50972646 0.5006176 0.4070032 0.030082293 0.12520528 0.25692627 -0.07125803 0.3946158 0.39691174 0.022435278 -0.04965764 -0.08961512 0.27449778 0.33359686 0.26387358 0.21981832 0.20681003 -0.17577586 0.24013233 0.23568398 0.12509765 0.048548475 0.1765355 0.35939676 0.34518325 0.15454334 0.030708604 -0.0848656 -0.62043595 0.20508285 0.0820159 -0.02975307 -0.0830023 -0.018887155 0.029146433 -0.034128197 -0.06098944 -0.5280331 0.015245758 0.12456641 -0.00080387667 0.047826044 0.047890246 0.09288959 0.046984002 -0.09287295 -0.6179137 -0.031858966 0.22799629 0.29953086 -0.096160166 -0.08297701 0.089304864 0.13284382 0.14536297 0.1156117 0.06236691 0.22795326 0.31014466 0.31380036 0.31415975 0.22125325 0.13389929 0.11279446 0.16165626 0.16764316 0.15644816 0.22920394 0.26992467 0.29257664 0.3947102 0.4014054 0.3164752 0.12637162 0.027229104 0.12160264 0.13698211 0.008117933 0.16565922 0.2251105 0.6388686 0.3994057 0.2308875 0.048127957 -0.041211743 0.037966307 -0.15577263 -0.39990705 -0.04133759 0.44264823 0.061586022 -0.2763343 -0.44935104 0.031465355 -0.017074399 0.3197039 0.27647877 -0.21205528 0.48408517 0.1575118 0.10250497 -0.14813188 -0.0706991 -0.15876338 0.560212 0.049284272 0.010807298 -0.12490888 -0.03799981 0.5589568 0.16872972 0.0544221 -0.04155077 0.4411671 -0.012313314 0.015099768 0.18143381 0.22617869 0.36339062 0.3003845 0.4387982 0.43389198 0.42490843 0.3106131 0.4358734 0.45275697 0.4383561 0.556267 0.55669594 0.1680588 0.19358003 0.40459353 0.42569074 0.55887187 0.59224606 0.58268356 0.47258535 0.07634233 0.06742494 0.14255731 0.2602991 0.29674426 0.31441778 0.32309073 0.30521026 0.16525535 -0.009949977 0.33823577 0.35526553 0.35546732 0.13452443 0.2613815 0.15277182 0.6069187 0.32256603 0.36242795 0.25776285 0.5051068 0.58775735 0.5635019 0.39019403 0.42737228 0.53698385 0.57020515 0.54766583 0.45422316 0.5137782 0.547083 0.33904243 0.4900867 0.39626682 0.35765406 0.34080815 0.28603953 0.59425056 0.34562525 0.28956756 0.51460695 0.30893907 0.42017233 0.29031634 0.18843938 0.17206496 0.41337666 0.52486014 0.60280037 -0.12420676 0.44109574 0.4513709 0.3018958 0.423544 0.5259461 0.62597924 0.61641407 0.45721924 0.39111432 0.29878986 0.3601088 0.16120744 0.10636313 0.016911283 0.027808517 0.2699563 0.5744518 0.5199064 0.47320354 -0.07135657 -0.15332033 -0.10444708 0.44640857 0.4359914 0.3678108 0.11095351 0.13643755 -0.4140107 0.043057 0.33642998 -0.2403396 -0.49573886 0.10205679 0.3048204 -0.108720064 0.09472552 0.22257353 0.2715006 0.19601889 0.099010415 0.15268862 0.30096084 0.3118059 -0.06937807 0.3259694 0.671258 0.6526369 0.38078752 0.25946194 0.29802746 0.25054026 0.6962215 0.66250026 0.4969589 0.26374516 0.16897088 0.1837664 0.696646 0.68831766 0.64775383 0.44440183 0.14223525 0.6492865 0.57697976 0.27156037 -0.22818908 0.09430385 0.16939935 0.46518046 0.002923537 0.13804194 -0.44308552 -0.37122563 0.19620852 0.022633217 0.009734221 0.41463816 0.41808945 0.31462264 -0.054610215 0.4732729 0.48681945 0.39106962 0.26383474 0.037427142 -0.027789686 0.38563943 0.53910136 0.39681655 0.28544223 -0.19307257 0.14344178 0.21083196 0.51784927 0.2599358 0.06214863 0.2756661 0.35164005 0.34047803 0.51095545 0.4232066 0.27012846 0.39600456 0.3989976 0.3540029 0.42458767 0.4175712 0.26313436 0.33954662 0.26270634 0.3679608 0.40026248 0.40493843 0.23758957 0.041935712 -0.09293579 0.017037746 -0.16082704 0.12733287 0.3152529 0.34015894 0.33067995 0.2223649 0.2834797 -0.12425898 -0.20906761 0.32137144 0.33304358 0.28939205 0.2898985 0.35517645 0.38022512 0.37437534 0.17151304 0.16309972 0.19300507 0.46002486 0.26961672 0.26593038 0.2524764 0.38977155 0.3556916 0.2679525 0.3697815 0.49844086 0.43078953 0.3548646 0.422013 0.46504492 0.47840875 0.51071084 0.46941435 0.369636 0.40591246 0.37006485 0.31118608 0.38895088 0.26945072 0.26136175 0.25957945 0.28839955 0.33420038 0.23176517 0.26442587 0.0976615 0.17004819 0.161365 -0.018626511 -0.10485059 0.036511324 0.2169533 0.28335628 0.28103778 0.31527314 0.40090337 0.46904474 0.56059474 0.5852063 0.43537763 -0.04524359 0.21426588 0.030492187 0.025921136 0.2564012 0.58569145 0.5121348 0.5099338 -0.34341723 -0.266457 -0.18934593 0.17989807 0.14715585 0.07547656 0.00846269 0.47322306 0.48947653 0.3420657 0.47051948 0.43274546 0.22452855 0.3796252 0.2893774 0.26326695 0.19734314 -0.11401237 0.10991005 0.31739053 0.20026904 0.23921381 0.31575483 0.24766782 0.27360776 0.15183872 0.3155429 0.039894342 0.33774817 0.60210586 0.4638902 0.2487314 0.6937165 0.69061375 0.20510215 0.18899977 0.6994077 0.6933153 0.17243654 0.21677881 0.68086207 0.6220602 0.23063357 0.23544309 0.23482999 0.5336957 0.5342726 0.32423455 0.267616 0.28684986 0.25422984 0.28048682 0.2576093 0.08411391 0.23952812 0.37968826 0.3984871 0.0075039268 0.5311497 -0.42415053 0.5831022 0.59512365 0.57947934 0.2651336 0.281658 0.58529305 0.5697886 0.3401598 0.25184277 0.508551 0.37319496 0.20153391 0.35609815 0.29493767 0.17929605 0.1484411 0.10735294 0.3096413 0.27712697 0.031010449 -0.15566736 0.28517377 0.25728476 0.20169652 -0.21451317 -0.51251924 -0.31817144 -0.08635029 -0.03904543 0.21997143 0.22210228 0.19953287 0.18588717 0.28762266 -0.09993858 0.022817805 -0.038655125 0.31941032 0.28799427 0.33369404 0.3223223 0.318296 0.15122598 0.034773998 0.02447556 0.35195726 0.37806547 0.1496768 0.1394814 0.36131755 0.37950128 0.38178992 0.16111332 0.35043788 0.34248045 0.37166268 0.31542462 0.41636318 0.41208726 0.32664332 0.39863646 0.40323234 0.34582257 0.35608023 0.3122368 0.3878765 0.433335 0.42104515 0.374789 0.2827296 0.37083197 0.3760847 0.31143302 0.28022116 0.25672147 0.30857164 0.27105504 0.2923541 0.30525067 0.30181062 0.2907564 -0.12958606 0.28434488 0.27397367 0.103185445 -0.10452644 0.29224756 0.2632105 0.3233305 0.5468775 0.43393672 0.30721274 0.27702346 0.05682743 0.047853548 0.08787743 0.5030752 0.5252876 0.5288502 0.5121498 -0.060872037 -0.052411817 -0.00431199 0.048528332 0.3579976 0.42497867 0.5111847 0.29151803 0.46639514 0.4128014 0.012182828 0.400492 -0.07997088 0.089964606 -0.15489765 -0.045746494 0.15116286 0.16916496 0.21697313 0.23857148 0.116405636 0.19320254 0.35217774 0.30084872 0.19158351 0.26975533 0.6470154 0.66620195 0.5004333 0.4377942 0.6516577 0.6801606 0.6530423 0.62061954 0.5656392 0.17192619 0.62819916 0.64907646 0.6152693 0.66675293 0.1979495 0.22388445 0.60130125 0.6596637 0.20987318 0.19000673 0.5291958 0.20671974 0.32205647 0.13416909 0.15626019 0.34452975 0.0354373 -0.047735974 0.46438676 -0.11916238 -0.054795228 0.5935681 0.007908873 0.61309725 0.605565 0.6095556 0.60031927 0.26387146 0.3424441 0.5558344 0.46224928 0.30761328 0.28631735 0.33529013 0.39319885 0.14348593 0.080525264 0.062320314 -0.15282907 -0.13921043 0.28988412 0.32185408 0.24899577 -0.29038945 0.17071417 0.21225853 -0.55386835 0.21784088 0.24993902 0.105779245 0.23355624 0.17985013 0.1929948 0.017612144 -0.042751268 -0.21424149 -0.23153833 0.3428508 0.32227448 0.0741661 0.36518264 0.3157987 0.12400018 0.36706775 0.3588962 0.2533111 0.310715 0.20077908 0.28062823 0.28255957 0.21725024 0.5205481 0.407175 0.40882546 0.6550441 0.62405616 0.39512455 0.3970254 0.4260745 0.40811598 0.3494212 0.6183175 0.31464124 0.24539372 0.48670438 0.2561839 0.27115393 0.27151135 0.26022363 -0.037582107 0.19886093 0.23044404 -0.048480026 0.18580201 0.1593714 0.22796458 0.2688002 0.4638092 0.3115356 0.111706145 0.093469724 0.07564293 0.45809114 0.5413228 0.49587244 -0.2880958 -0.0013240827 0.27545017 0.5203427 -0.3445424 -0.30738136 0.1734412 0.045762323 0.48860073 0.4268037 -0.118547395 0.25149173 -0.05945999 -0.053032953 -0.11688413 0.050218407 0.13501328 0.060900778 0.17672446 0.068093345 0.5505855 0.5984409 0.5860363 0.3392292 0.28757623 0.18983479 0.08627718 0.5047789 0.6101407 0.6337763 0.6077208 0.5398013 0.4534316 0.40625608 -0.12366375 0.46691498 0.6093843 0.54321253 0.5422511 0.49310783 0.10763844 0.39761156 0.58560216 0.5274753 0.5822482 0.13509427 0.56418765 0.49530578 0.4617926 0.62422323 0.20236388 0.15972668 0.386792 0.4035378 0.42622748 0.510171 0.07666607 0.014844369 0.42149657 0.33129793 0.10693001 0.061351392 0.19871119 0.02920141 0.08623047 0.07170077 0.424876 0.004167229 0.059236445 0.56940067 0.1817066 0.579809 0.37293655 0.44281173 0.5901965 0.57367164 0.5255736 0.45101947 0.55599415 0.5115679 0.3746371 0.21873611 0.39073348 0.43446028 -0.16742694 0.38749963 0.4437189 0.024623843 0.37546477 0.43037665 0.21362674 0.111256465 0.23528 0.3708342 0.25215155 0.14696626 0.21436001 0.2072647 -0.05954899 -0.20250049 -0.26785833 -0.32256716 0.26531133 0.224992 0.16957486 0.14979845 0.093354434 0.06702576 0.012373649 -0.017419092 0.324292 0.29562443 0.033278175 0.093457945 0.2979934 0.29910523 0.28193754 0.13126329 0.009066924 0.15649529 0.19694376 0.16247764 0.01030146 0.6098711 0.65030634 0.6640625 0.6707829 0.5830978 0.42684296 0.69865125 0.6874527 0.38220292 0.34442925 0.29699263 0.67759216 0.6873349 0.26717308 0.65314174 0.2107043 0.20826918 0.2331573 0.49329513 0.22212337 0.16998957 0.1341441 -0.03924012 0.18113825 0.35022295 0.42817974 0.45462132 0.4552732 0.119764745 0.1276718 0.19443789 0.2625184 0.37108222 0.42475605 0.35164338 0.07549189 0.11072543 0.262314 -0.11