# vtk DataFile Version 2.0
Really cool data
ASCII
DATASET POLYDATA
POINTS 7801 float
-1.5570779 11.977796 -17.272203
-1.611994 12.716484 -17.932426
-1.6262085 12.453643 -17.366175
-1.6329408 12.595803 -17.041315
-1.5882599 12.991092 -17.929104
-1.6599493 13.216094 -17.51496
-1.6699599 13.109419 -17.023327
-1.5909761 17.643322 -18.025621
-1.6509142 17.73041 -16.780182
-1.7183361 18.547812 -17.544125
-1.7480319 18.496326 -16.713196
-1.6320004 18.964827 -17.548346
-1.6295254 19.026009 -16.763165
-0.87361026 11.178962 -18.154043
-0.9910514 11.013743 -17.349745
-1.0644321 11.167747 -16.8789
-0.7306674 11.984792 -19.16155
-1.0918884 11.828538 -18.475578
-1.3755951 11.608414 -17.53074
-1.237958 11.571668 -16.722416
-0.9411075 11.584338 -16.119656
-0.9870262 12.303175 -19.045946
-1.428544 12.462189 -18.289207
-1.380256 12.389601 -16.509039
-0.7816188 12.200754 -15.417782
-0.6155711 12.838913 -15.081575
-1.3537555 13.221994 -18.367582
-1.334346 13.403385 -16.482319
-0.97366595 13.367246 -15.581512
-0.8529939 14.232115 -18.254257
-1.1580695 14.13024 -17.6173
-1.2998862 13.789317 -16.686506
-0.5860225 15.796301 -20.923737
-0.5742139 15.6681385 -20.599504
-0.5511701 15.531492 -19.773764
-0.6078205 15.237826 -17.545101
-0.9365369 16.185383 -16.758368
-0.61715 16.091898 -21.079092
-0.70652837 16.623983 -18.93664
-1.3362627 16.818129 -17.460087
-1.0721072 16.833292 -16.542398
-0.8462182 16.973915 -15.951259
-0.5531148 17.049725 -21.108063
-1.3907005 17.617117 -18.268864
-1.4159617 17.200886 -17.867798
-1.4136877 17.34924 -16.504349
-1.0047698 17.697895 -15.557832
-0.7647368 18.154526 -14.277286
-0.95950335 18.365267 -19.217165
-1.3727887 18.471142 -18.506527
-1.3586192 18.836815 -15.131717
-1.1274731 18.559418 -14.575613
-0.8385133 18.556597 -13.999168
-0.81947726 18.97895 -18.842543
-1.2263045 19.130615 -18.107506
-1.4390283 19.281212 -17.439768
-1.3589556 19.364576 -16.640993
-1.308736 19.328932 -15.431532
-1.1511345 19.340635 -14.625684
-0.83403754 19.405497 -13.943142
-0.8808636 19.93021 -16.427448
-0.97976893 19.86768 -15.529722
-0.7222841 20.1443 -14.571971
-0.7028673 19.83625 -14.093915
-0.008967847 11.295056 -19.119965
-0.5672993 11.02507 -18.225834
-0.38441482 10.702461 -17.441326
-0.41230908 10.809897 -16.818897
0.04883808 11.144073 -15.994347
0.28900284 11.023269 -11.232308
-0.0073626935 10.846771 -10.325116
0.08817318 10.814488 -9.633329
0.2500586 10.9818735 -9.122677
-0.034671456 12.016399 -19.856348
-0.32816765 11.851501 -19.321516
-0.6037402 11.7051 -15.565442
-0.2606234 11.752487 -15.262235
0.00029551983 11.51166 -11.307658
-0.2314662 11.491205 -10.345182
-0.10423091 11.459983 -9.59031
0.1531341 11.338681 -9.111277
-0.090705544 12.759362 -20.184538
-0.5457848 12.372164 -19.545935
-0.17453039 12.478263 -14.678314
-0.24096653 12.621863 -11.488346
-0.09139785 12.508858 -9.688931
0.18560255 11.938986 -9.126079
-0.21678773 13.612169 -20.172897
-0.23970291 13.704477 -14.905186
0.028625578 13.48422 -11.980933
-0.19500563 13.298035 -11.455157
-0.22347882 13.396067 -10.614933
-0.013749361 13.360277 -9.825524
-0.16228205 14.977789 -21.225245
-0.18803832 14.371665 -20.485886
-0.41502607 14.622781 -19.214632
-0.53199035 14.458916 -16.278406
-0.0318231 14.1582985 -15.030431
0.08727184 14.09371 -11.260684
0.17245828 14.308983 -10.497829
0.20976888 13.802115 -9.804467
-0.319721 15.717945 -21.402025
-0.28040063 15.582453 -16.58016
-0.17007092 15.892341 -15.940651
-0.16099128 16.93036 -22.18993
-0.4040853 16.578232 -21.660166
0.022154897 16.74401 -14.774242
0.22424832 17.635775 -23.020649
-0.17268458 17.463614 -22.350832
-0.48012608 17.42845 -19.73221
-0.51184255 17.44355 -14.767182
-0.36744812 18.06216 -13.793399
0.12081078 18.126287 -13.327841
0.17481005 18.107367 -22.888
0.04144457 18.238644 -22.457907
-0.083514184 18.323618 -21.66113
-0.17708814 18.5056 -20.234823
-0.4649042 18.609549 -13.500663
0.25811943 18.815096 -22.053682
0.20301595 18.936724 -21.456697
0.27414855 19.071096 -20.698196
-0.30822712 19.26871 -19.065393
-0.7589586 19.340164 -18.425608
-0.53547096 19.54981 -13.633855
0.040193036 19.298824 -13.0933695
-0.45083734 19.65327 -18.19471
-0.12044725 20.0556 -17.395397
-0.63174284 20.08576 -16.496077
-0.31731254 20.436384 -15.733941
-0.4881356 20.338102 -14.512272
-0.18134606 20.085817 -13.700057
0.1490745 19.876701 -13.300444
-0.08584803 20.600111 -15.946574
-0.024533346 20.748001 -15.360968
0.018731743 20.789465 -14.636261
0.6532555 10.214536 -10.3075905
0.83664995 10.2144165 -9.689615
0.6023841 11.202232 -19.298292
0.51305807 10.732571 -18.326258
0.3029528 10.593491 -17.589586
0.36902153 10.67134 -16.757458
0.45632502 10.994955 -15.787846
1.013084 11.32089 -15.160823
0.5708481 11.179926 -11.708924
0.72250575 10.5448065 -11.164799
0.4133944 10.466906 -10.572536
0.4128031 10.484982 -9.469619
0.76318634 10.776542 -8.97811
0.6832713 11.859559 -20.097906
0.37595642 11.442985 -19.524788
0.8441194 11.531297 -14.913674
1.0824485 12.2551365 -13.445323
0.44574168 11.314539 -11.661294
0.7192668 11.532811 -8.737166
0.91298354 12.339509 -20.605005
0.4836555 12.95916 -12.682996
0.7682564 12.105025 -8.867861
1.2738583 14.005104 -21.92264
0.82844615 13.433159 -21.250916
0.7744471 13.714456 -13.442788
0.36830503 13.75581 -9.602685
0.636135 13.197109 -9.133885
0.820691 15.099 -22.165094
0.5850401 14.097076 -12.8856325
0.59042 14.356493 -12.698419
0.41343063 14.628768 -10.35509
0.56154585 14.260786 -9.77169
0.5951071 13.8324 -9.391127
0.883986 16.028606 -22.751703
0.55909395 15.762428 -22.407114
0.47127238 15.674454 -15.055939
0.7432061 15.25298 -12.70467
0.7958058 15.535322 -11.235779
0.8374188 16.670677 -23.16698
0.99729156 16.188522 -13.860629
1.237134 16.664536 -12.338149
1.1211236 16.38325 -11.518301
1.0965691 15.963274 -10.843
0.5904746 17.543516 -23.29051
0.6516421 18.31728 -23.159966
0.6460459 18.42171 -12.73236
0.9591443 18.96292 -22.894485
0.64416593 19.00398 -22.433378
0.5658985 19.31573 -21.550451
0.4864353 19.169725 -20.56114
0.6113932 19.300161 -19.306921
0.7167557 19.553276 -12.867885
0.82695055 19.669113 -19.113605
0.45169812 19.743258 -18.55052
0.5242628 20.27986 -17.482588
0.4100082 20.521177 -16.71025
0.73624843 20.406567 -13.398068
0.96952647 20.157284 -13.162963
0.70198715 20.696373 -16.16067
0.5190492 20.945107 -15.251447
0.52043855 20.93943 -14.59357
0.6703774 20.748112 -14.035866
1.4282868 25.841513 -4.2112136
1.4227194 25.834423 -3.9115195
1.4239192 26.544466 -4.182519
1.4411908 26.522642 -3.637491
1.6612545 10.205509 -11.152348
1.5637591 9.9992285 -10.412125
1.5359982 10.1419935 -9.595472
1.5207411 10.350145 -9.183952
1.3474864 11.055449 -19.23946
1.798248 10.880202 -18.084982
1.4567952 10.731981 -17.71482
1.2340637 10.794025 -16.573122
1.4043145 11.0316105 -15.686228
1.7001128 10.410048 -11.397903
1.5601215 10.741256 -8.829474
1.8589296 12.350898 -20.864191
1.3722506 11.336998 -8.540515
1.7217548 11.625769 -8.458472
1.6807041 12.692565 -21.72968
1.5008627 12.214415 -8.568247
1.7302853 12.120155 -8.41788
2.2285874 13.323412 -23.01063
1.4493189 13.523863 -21.908403
1.4849178 13.177947 -8.915221
1.9509189 14.806847 -22.930534
1.4801321 14.797495 -22.521946
1.4682497 15.6601925 -10.001303
1.3535033 16.94916 -23.466526
1.3525736 18.260939 -23.597843
1.254992 18.343264 -23.461254
1.8715165 18.583162 -11.92084
2.132861 18.287498 -10.961673
1.3524075 19.044792 -22.993681
1.6369944 19.50382 -22.7192
1.2372899 19.071606 -12.527532
1.9829307 19.305603 -11.985011
2.2366753 19.914564 -22.77133
1.8855352 20.21628 -21.392366
1.7264539 20.153559 -20.753778
1.4479656 20.181492 -18.062965
2.2247298 20.277498 -12.642223
1.467536 20.663317 -16.542503
1.5017147 20.989557 -15.296173
1.0919961 21.06279 -14.882605
2.0950024 20.58633 -13.384518
2.3843324 21.779634 -10.136268
2.430487 21.09038 -9.647371
1.8531698 25.21808 -4.4152017
2.1667588 24.784357 -3.8990479
2.2005744 25.209959 -2.9481788
1.9002548 25.732857 -5.1667566
1.6282812 25.642275 -4.4050636
1.6362048 25.679277 -3.6367977
1.8577173 25.8211 -2.969003
2.2372315 26.614626 -5.651616
1.8051252 26.310427 -5.2151685
1.5592026 26.484217 -4.6319656
1.5304796 26.337748 -3.3350558
1.8022199 26.441128 -2.8137498
2.042859 27.322811 -5.1494107
1.7317728 27.22084 -4.4245505
1.6092353 27.01821 -3.438941
1.9710703 27.181257 -2.8180614
2.1228657 27.908077 -4.378643
2.1607435 28.008083 -3.6997964
2.2010727 10.226673 -11.059806
2.352193 10.165491 -10.456479
2.102535 10.226765 -9.675451
3.2468011 11.223758 -23.02604
3.1645641 11.356995 -22.142477
2.2292233 11.192433 -19.140228
2.0158365 10.930211 -18.569515
2.3478765 11.13765 -17.134983
2.347361 11.156255 -16.224388
1.9994389 11.214353 -15.488002
2.5661128 11.324743 -12.165314
2.0825813 10.654923 -11.631708
2.4401062 10.436447 -9.5968
2.190124 10.8934965 -8.8320875
3.3298824 11.704384 -24.10871
2.9655638 11.867388 -23.241482
2.8668685 11.779811 -22.281578
2.8154132 11.614157 -20.360046
2.621918 11.464878 -15.3694
2.4478986 11.8337 -14.836306
2.243905 11.493162 -8.61645
2.0264297 11.722575 -8.435421
3.154424 12.553684 -24.12298
2.6081572 12.875011 -23.416706
2.221012 12.219988 -8.635317
3.1129448 13.698449 -24.452507
2.4443285 13.5639105 -23.084095
2.6979265 13.276599 -9.093397
3.3555555 14.5390415 -24.407396
2.5482028 14.2791 -9.438287
3.405806 16.076113 -26.890686
3.2653594 15.584531 -25.140438
3.227781 15.571471 -24.622704
2.3486838 15.363221 -9.65004
3.306948 16.64567 -27.291382
3.2046983 16.320078 -26.492329
3.1184404 16.739372 -24.769547
2.6076453 16.43173 -9.964196
3.2118123 17.155832 -27.134073
3.1961672 17.358774 -26.57664
3.0595672 17.065567 -25.908474
2.9840918 17.615372 -24.55711
2.590208 17.202644 -10.138578
3.3897483 18.073578 -26.925978
3.417702 18.245962 -26.366163
3.0275888 19.375088 -23.988245
3.2535574 19.897676 -9.058492
3.3001075 20.323738 -23.972376
2.861474 20.195282 -23.402119
2.4227357 20.585642 -20.749212
2.7564673 20.487871 -19.566114
2.6812603 20.009295 -18.693548
2.4640832 20.24209 -17.43288
2.6323109 20.358238 -10.647778
2.5670195 20.667768 -9.573145
2.8292716 20.8499 -8.878263
[...]
POINT_DATA 7801
SCALARS features_00 float 1
LOOKUP_TABLE default
0.6393992 0.57641685 0.60256076 0.5843494 0.5438062 0.51652837 0.5240526 0.5146725 0.49714196 0.57308066 0.57852477 0.5636475 0.58109564 0.6614228 0.7058357 0.68774116 0.51029545 0.61123544 0.66610503 0.6603818 0.64479697 0.52102506 0.5923397 0.5971056 0.59281886 0.5092787 0.50135195 0.46160257 0.4518131 0.31475493 0.3731442 0.39743894 0.253098 0.21580262 0.13252625 0.10108481 0.13023815 0.2780854 0.21154815 0.33240435 0.22753575 0.1916002 0.3345629 0.49231517 0.4350383 0.36941412 0.3506979 0.4659019 0.37835705 0.50813913 0.58944505 0.5437803 0.53804183 0.3853883 0.5029534 0.54322433 0.56128985 0.6024759 0.61704105 0.5993959 0.5078309 0.5720818 0.60444677 0.60946625 0.5139189 0.6541294 0.6981036 0.67579174 0.5983682 0.77385736 0.8652291 0.91194606 0.89945596 0.3906934 0.47519624 0.61997485 0.59000707 0.72927 0.8464108 0.86739653 0.8687508 0.30030328 0.42027587 0.46586972 0.59058505 0.7083869 0.79529023 0.2556861 0.24007572 0.35099185 0.4507143 0.53275627 0.5648252 0.22891036 0.19830216 0.17844087 0.16057193 0.09199476 0.40529144 0.44502234 0.5232541 0.29771894 0.007957056 -0.00818444 0.4610465 0.3802057 0.09855372 0.49465448 0.49128893 0.3020126 0.28172112 0.44240627 0.4190544 0.47491065 0.4656453 0.42026 0.23212019 0.52773595 0.4005295 0.3340426 0.20626137 0.28462717 0.41180372 0.5826596 0.5116849 0.38663465 0.38883436 0.47683635 0.49007815 0.5903912 0.5736007 0.52712655 0.4452082 0.48069924 0.5321587 0.914865 0.96064126 0.4789647 0.58694905 0.62257266 0.5805079 0.5326569 0.39476636 0.68612564 0.8197922 0.86760473 0.9347815 0.9052375 0.3516155 0.44594708 0.40264958 0.2693083 0.6817044 0.8244391 0.2645505 0.31165242 0.76144576 0.075497 0.15811111 0.05691409 0.5390732 0.6491403 0.19389659 0.16433772 0.18479645 0.42596748 0.45821953 0.5217025 0.31604466 0.3023945 -0.114059016 0.10914494 0.29322234 0.43096265 -0.15670146 0.040425427 0.18367146 0.2930349 0.48526534 0.44569293 0.34462315 0.37911484 0.3862784 0.29625857 0.16294006 0.16966784 0.4276008 0.15322769 0.25935817 0.3008926 0.34517372 0.47321278 0.4295962 0.33911264 0.4178391 0.4734119 0.48632854 0.618511 0.61148155 0.63798165 0.62673104 0.84456944 0.93022376 0.9757184 0.95177805 0.42877957 0.34849143 0.40476173 0.4095573 0.3458743 0.8048633 0.8949111 0.17952049 0.82249933 0.77398664 0.11577416 0.7150927 0.7138504 0.058749773 0.061922505 0.63048655 -0.00078620017 0.074635975 0.38249376 0.38296196 0.3681134 0.38456807 0.09168143 -0.04680529 0.33298674 0.26837108 0.31283644 0.13238692 0.16190998 0.2020918 0.09941884 0.14801693 0.24617505 0.21975338 0.26568323 0.36179495 0.27078474 0.3888404 0.37081647 0.5817615 0.5052606 0.47862554 0.61034966 0.6116769 0.59160924 0.5492619 0.57190585 0.6229596 0.6381033 0.6041972 0.5627686 0.5942394 0.64999855 0.6402586 0.58322984 0.5962102 0.59377104 0.80490315 0.858115 0.9516772 0.45889145 0.32501987 0.24253094 0.31168196 0.19792962 0.16936754 0.2281562 0.49930587 0.73159385 0.9160363 0.8588012 0.48753923 0.4308862 0.31312516 0.085660115 0.11074926 0.10785913 0.75586474 0.7389835 0.32652217 0.20281166 0.6696575 0.13582575 0.03129296 0.5025499 0.06336059 0.3972295 0.42734748 0.17281057 0.10044592 0.357844 0.42053717 0.3590271 0.10180906 0.24767134 0.35091937 0.2863766 0.24210647 0.0021511316 0.13876775 0.23931973 0.19163275 -0.07069133 0.13437623 -0.031636156 0.042467326 0.06439016 -0.11418468 -0.16587457 0.010671269 0.27738973 0.33162224 0.29355767 0.41706192 0.51348674 0.57454 0.6612814 0.15289716 0.22417049 0.0903977 0.09559648 -0.0032735001 0.028425977 0.20674177 0.38689613 0.3785809 0.35424075 0.42615235 0.47538728 0.6631614 0.14524023 0.19655536 0.33771366 0.36653844 0.34284925 0.26676118 0.44902432 0.26906964 0.29581973 0.09996691 0.39765507 0.5336894 0.44930452 0.2959785 0.46430445 0.5163471 0.5398031 0.31663257 0.48738986 0.508393 0.52250546 0.49637836 0.49492025 0.49804127 0.49409974 0.42103416 0.6017242 0.60047 0.555205 0.45465547 0.25496158 0.047793522 0.042998567 0.07641398 0.63188714 0.75436395 0.80107117 0.5341025 0.5549523 0.53856194 0.2894356 -0.011119623 0.0783227 0.054387152 0.22804253 0.4681889 0.54974896 0.66452533 0.69016147 0.45485407 0.44262928 0.43148893 0.5180254 0.6090155 0.3198809 0.46432787 0.42714822 0.34326187 0.17874105 0.29181394 0.5034845 0.48075068 0.49541017 0.46518248 0.24606527 0.38588464 0.33757514 0.09424603 0.25356358 0.23378861 0.15839705 0.1418724 -0.008994997 0.039895497 0.507553 0.35558647 0.17700669 0.07204719 0.020637408 0.08741897 0.05490738 0.03150367 0.44985497 0.5504662 0.65214336 0.7637452 0.81490326 0.54575384 0.5164203 0.4221167 0.27716738 0.1656142 0.04148148 -0.1634439 0.06880993 -0.0005857274 0.38590896 0.5015495 0.62274075 0.7574041 0.7857362 0.52591455 0.49983853 0.45984697 0.3689332 0.22381777 0.009631336 0.09158924 0.039163437 -0.29136136 -0.1731883 0.023484629 0.021408513 0.32844615 0.7362546 0.47452354 0.43503493 0.35585687 0.09778776 0.16917224 0.21007372 0.13643469 0.05590827 0.071133666 0.17957175 0.111022286 0.07560482 0.07852641 0.054618716 0.13850552 0.65749013 0.11912803 0.17287633 0.21430081 0.18886775 0.17221154 0.081382714 0.06834822 0.22202963 0.012485072 0.3793514 0.02009213 0.16632807 0.095996365 -0.050442867 0.39419392 0.46933112 0.44853783 0.31305873 0.16172999 0.38483804 0.47047004 0.511098 0.45702097 0.45260864 0.38863003 0.52804697 0.5204948 0.44914368 0.37306875 0.256883 0.45821196 0.5476687 0.44333997 0.41374695 0.45434636 0.45466954 0.409171 0.56111133 0.52153826 0.42902046 0.2755627 0.47758257 0.57049614 0.5743794 0.46921217 0.45586357 0.44207978 0.4140235 0.4087811 0.452825 0.30595964 0.500854 0.5747374 0.43697655 0.456616 0.41293988 0.3689383 0.54050237 0.3698582 0.6310588 0.58226854 0.5146178 0.61685467 0.6363877 0.64652026 0.51641226 0.43707317 0.35322502 0.16441272 -0.027001798 0.12182057 0.17256774 0.5800874 0.12443151 0.12199373 0.018355282 -0.038579226 0.26645952 0.46815652 0.5196347 -0.08840223 0.048501775 0.33547124 0.44578892 0.41118684 0.3556111 0.450542 0.40584657 0.2651242 0.48308876 0.20762978 0.5083732 0.2131578 0.43915042 0.33477834 0.027704824 0.011479349 0.5353515 0.491127 0.015514475 -0.015195756 0.4304593 0.600169 0.6533665 0.8109088 0.81058025 0.55181015 0.54836357 0.7781359 0.74048287 0.5392818 0.49959105 -0.15470323 -0.27973336 -0.20866472 0.7184776 0.62228554 0.44610664 0.44838107 0.2730062 0.24281973 0.011355843 0.0062271394 -0.25935414 -0.27564675 -0.045768276 0.06752927 0.67370623 0.6494127 0.5941299 0.55827105 0.013896233 0.1238699 0.10130689 0.22046177 0.251702 0.21954724 0.19154868 0.13528065 0.23432478 0.25721157 0.24717075 0.22497742 0.13006502 0.302241 -0.021510134 0.38176805 0.4683272 0.5037955 0.35912806 0.3797732 0.28626716 0.17439316 0.17592314 0.5307919 0.52373624 0.40225786 0.42031956 0.37096047 0.27011344 0.30184418 0.40457878 0.27635008 0.25977838 0.16961995 0.22440058 0.52627164 0.55987686 0.5523714 0.4342932 0.44046995 0.40606368 0.35866186 0.39163718 0.33153084 0.5718319 0.5604615 0.5584303 0.46172953 0.47869742 0.45265868 0.41300577 0.31783947 0.26886845 0.38267428 0.37353328 0.3018335 0.5241623 0.41093242 0.19828165 0.57692736 0.56675124 0.51904935 0.5149861 0.49230385 0.5181338 0.28980935 0.3058065 0.5892137 0.681311 0.5038263 0.5570327 0.5474237 0.5494144 0.6064887 0.7355122 0.78633916 0.3309773 0.33890086 0.32681578 0.30213693 0.40799853 0.59667325 0.7520406 0.77379704 0.74763894 0.31950146 0.39413652 0.6127148 0.6928127 0.7311537 0.5908689 0.56478333 0.5092888 0.6224075 0.58438665 0.03323222 0.066780455 0.06024839 0.22011437 0.2330535 0.21076445 0.56158525 0.20191768 0.12764968 0.5264783 0.05546572 -0.04426284 0.18291818 0.32725418 0.30238008 0.06592041 0.273528 0.40501228 0.25813594 0.13554238 0.41201788 0.17596498 0.3991598 0.40753818 -0.072760865 0.3045034 -0.0215375 0.087507546 0.05773059 0.2902851 0.196385 0.036363885 0.033817917 0.44842386 0.3714744 0.52058136 0.6903672 0.8118838 0.7158858 0.71548796 0.81988955 0.6502582 0.58076155 0.49148953 0.34617335 0.5199349 0.64332116 0.9192326 0.84265655 0.70605433 0.5957289 0.5455486 0.25240034 -0.1218687 0.93043774 0.8870244 0.7232224 0.60161805 0.45045418 0.3447431 0.24973468 -0.04412212 -0.30439252 -0.22803783 0.048958834 0.3144644 0.44718823 0.9222055 0.8952415 0.753876 0.5230713 0.5335001 0.36268273 0.29760045 0.15940002 0.07164826 0.23588538 -0.12812985 0.0020104162 0.116981894 0.08357542 0.14736626 0.27700758 0.29869503 0.26435834 0.2331874 0.112366624 0.38397467 0.4991759 0.8764887 0.72016954 0.58604044 0.28212166 0.31954587 0.29292923 0.27553922 -0.023889326 0.15820716 0.2916245 0.33887756 0.49633855 0.258854 0.37793842 0.2929149 0.40801373 0.45390406 0.46393016 0.3190188 0.26200077 0.36133903 0.5061456 0.53404367 0.5137562 0.45243236 0.35026896 0.37484276 0.20324627 0.3622675 0.50730276 0.4516375 0.14235193 0.53239286 0.46592554 0.43432894 0.4162284 0.47826838 0.23777613 0.23009804 0.2393152 0.19925904 0.36452025 0.5204444 0.5269426 0.4307679 0.48430106 0.51496804 0.52024996 0.5012423 0.2158372 0.1984255 0.6710505 0.28896227 0.27880087 0.28699815 0.27038005 0.29865015 0.34487063 0.67367685 0.30345014 0.30829746 0.31437033 0.30976427 0.3695516 0.4010725 0.43204752 0.4700945 0.617007 0.65624607 0.653492 0.43093315 0.45541835 0.5429076 0.56209636 0.43603688 0.52490485 0.54063576 0.49224165 0.37787628 0.36452642 0.3003878 0.5273592 0.47546953 0.4537565 0.4359216 0.24025851 0.12633331 0.22733912 0.24655929 0.23648909 0.52578956 0.4372201 0.1551837 0.40602422 0.25435954 -0.16726089 0.28910732 0.12153663 0.27898932 -0.116309516 0.32484853 -0.3756076 -0.08460113 0.05549687 0.058643583 0.089494154 0.14148976 0.07662551 0.19083883 0.60570097 0.60653275 0.50133765 0.19615498 0.11894208 0.10448311 0.6822003 0.5951036 0.8821879 0.7543654 0.64524394 0.5858476 0.3856876 0.25987828 0.16988713 0.2729961 0.38698983 0.48954165 0.9170757 0.9159588 0.91996884 0.9288814 0.18463494 0.14032948 -0.3445325 0.3807639 0.4497465 0.9084289 0.9202044 0.26164895 0.18774119 0.15368178 0.008932496 0.05072821 0.23960781 0.22342114 0.2173617 0.105098836 0.4517355 0.42951396 0.9090266 0.8837316 0.7163353 0.5297805 0.4174507 0.35958272 0.20564213 0.43400228 0.07928538 0.08050341 0.40230912 -0.01848803 0.39585587 0.3850999 0.29220045 0.4380207 0.40502673 0.31203905 0.42346966 0.43181178 0.35547245 0.28084567 0.36539036 0.31049415 0.019169949 -0.13425764 0.46220225 0.42313418 0.5396295 0.48642662 0.48353255 -0.13133736 0.43391362 0.42578354 0.5582199 0.4860928 0.43448707 0.40888065 0.3925819 0.37713376 0.212401 0.20940329 0.5506721 0.24396843 0.30836147 0.28265482 0.34714514 0.49485368 0.4447984 0.18844227 0.2766252 0.5616233 0.2578997 0.3048097 0.32068032 0.31813043 0.35296792 0.59934705 0.37214267 0.41193122 0.4341961 0.39021975 0.35217637 0.43602186 0.3420866 0.50822234 0.513878 0.48241645 0.4418678 0.43780226 0.39297837 0.42383808 0.4135506 0.31190374 0.33801204 0.38141108 0.1323989 0.15910539 0.30806386 0.24387623 0.13333608 0.293755 0.2979898 -0.015451275 -0.1236225 -0.32056284 -0.31070897 0.51219547 0.20014642 0.033008985 -0.28627288 -0.295935 0.38372755 0.5317062 0.21707503 0.13208535 -0.26130372 -0.25978655 0.05120351 0.07012549 0.18823048 0.1205988 0.019313997 -0.034841232 -0.022625597 0.06480806 0.024512846 0.02923884 0.5599571 0.49152374 0.32750204 0.09733493 0.8623426 0.7335224 0.89355946 0.8919724 -0.18242693 0.026453618 0.8973288 -0.2243544 0.29042268 0.8937108 0.88385785 0.11430468 0.12559707 -0.18966539 0.39270216 0.8855926 0.8294035 0.7277162 0.43797463 0.2563635 0.12449762 0.061434783 -0.29266062 0.3762487 0.3736471 0.6156768 0.50151694 0.04957412 0.00839293 0.29333735 0.080245145 0.19849253 0.38604814 0.37210792 0.16045463 0.2712471 0.25981092 0.38411167 0.4456067 0.1329631 -0.082669005 0.3914704 0.38836882 0.56299984 0.55553347 0.24793877 -0.008530181 0.38309252 0.62781304 0.5953667 0.24793236 0.16875078 -0.11332427 0.41099378 0.15612075 0.33103102 0.36005276 0.6278743 0.60046536 0.5457428 0.47152025 0.37197465 0.29237136 0.07932952 0.19885649 0.43009368 0.26175576 0.31583673 0.33834237 0.3485037 0.3777176 0.3719908 0.22400492 0.42312288 0.46544188 0.35393623 0.39007986 0.27987158 0.30670992 0.38322875 0.30114406 0.23269337 0.23067583 0.5141527 0.5588523 0.53511274 0.4927507 0.45388433 0.42225313 0.45930052 0.36516625 0.3058426 0.3611792 0.1806244 0.27546296 0.22792313 0.15209325 0.044465777 0.012887624 0.24702117 -0.18843362 -0.2405143 0.14324915 -0.29403397 -0.024978071 -0.024953045 0.07381261 0.021663345 0.02805604 0.23470405 0.39502853 0.5675723 0.6326778 0.6458771 0.111247525 -0.004736379 0.059366364 0.20618284 0.32331464 0.58691114 0.6206181 0.6178484 0.0019721389 -0.24234259 0.19280982 0.54449946 0.56661284 0.049166076 0.07448295 0.08822024 -0.08295585 -0.28465754 0.3357857 0.38056383 0.003712207 0.029586382 0.08374087 0.11467257 0.00017065555 0.03337279 -0.004567853 0.56653136 0.4226308 0.0785477 -0.14270495 0.8560077 0.70681137 0.52641255 -0.27872187 0.87752116 0.86167216 0.8685715 0.850917 0.2544828 0.87389135 0.82836187 0.7412478 0.096723765 0.066048846 0.040469136 0.000251472 -0.26546943 0.19431445 0.35924962 0.81912625 0.77128243 0.6481862 0.60849357 -0.18949687 0.36898682 0.37248752 -0.003111869 -0.18959494 0.2014451 -0.17080055 0.014907531 0.3807066 0.25262198 0.12933427 0.18749648 -0.053558193 0.38654894 -0.0418676 0.04276947 0.33568627 0.3563778 0.5635601 0.052364465 0.06549571 0.10311806 0.3219507 0.60751474 0.6218387 0.13674624 0.048030972 0.049805142 0.18700758 0.39143223 0.62027967 0.59757566 0.5508696 0.45086312 0.3805207 0.25078684 0.11164007 0.06504509 0.3341459 0.3401199 0.3116646 0.3546294 0.40717843 0.4348086 0.43363047 0.41862062 0.44230306 0.16846824 0.17116375 0.080709964 0.33064064 0.254591 0.29919836 0.22730128 0.2445239 0.34030646 0.2592984 0.4070148 0.4782459 0.49151498 0.47460142 0.4741645 0.53465056 0.52609956 0.5013888 0.4364499 0.38054726 0.43287495 0.30164593 0.31255758 0.14892016 -0.1298501 -0.1184896 -0.06075404 0.059222817 -0.08090182 -0.044356197 0.0009434484 0.030125067 0.10585622 0.08926788 0.057048194 0.47745788 0.54923797 0.61548126 0.6543082 0.15862821 0.15233764 0.09073756 0.08897062 0.012508789 0.21022539 0.35036182 0.62621677 0.65020204 -0.027505226 0.62154305 0.004395202 0.5194552 0.030058365 0.042286687 0.050926067 -0.026614606 -0.07813217 -0.118309565 0.32270917 0.14935023 0.013717271 -0.012120321 0.093387336 0.43587065 0.30728638 0.1132595 0.029619362 0.01898858 0.009626225 0.49591696 0.27731502 0.02001651 -0.09471551 -0.14031719 -0.13111353 0.7556696 0.63702697 0.3696819 -0.16024417 -0.17866874 0.8326317 0.78695035 0.6492264 0.4294727 0.46598035 0.80898714 0.71988815 0.56680036 -0.4131974 -0.0051326603 0.17446521 0.75194585 0.6709422 0.5114361 -0.3232473 -0.4475844 -0.12247731 -0.102719106 -0.33895552 0.32203186 0.6728839 0.58626616 0.4974218 0.39374554 0.06422137 -0.27195445 -0.1512074 0.36562127 0.16210389 -0.14936198 -0.15611182 0.38181928 0.09392281 -0.1642934 -0.12802328 0.387679 0.398539 -0.17876936 -0.048769187 0.035971418 0.32176802 0.35498297 0.49895447 0.09450058 0.17697436 0.31840625 0.5507623 0.56933624 0.032391503 -0.1600573 0.23925018 0.23167436 0.5267084 0.18859902 0.28946486 0.3837205 0.5879909 0.57071954 0.50928104 0.41704273 0.3052572 0.08332187 0.104537845 0.19302574 0.47747406 0.5411419 0.5480361 0.31258875 0.32899308 0.33954993 0.32373452 0.3427527 0.40351948 0.45206362 0.44038773 0.43425286 0.11858373 0.08712213 0.37106404 0.4999246 0.5347768 0.53666735 0.15059699 0.21058264 0.21451882 0.45869893 0.50013787 0.3833788 0.40372592 0.4741596 0.48567244 0.5146287 0.52620715 0.51257527 0.47670883 0.57469976 0.5998789 0.58530164 0.5621015 0.5416001 0.44135472 0.48760137 0.49041507 0.47821674 0.41242337 0.3520674 0.31604013 0.2765137 0.1566212 0.20134863 0.21806496 0.26976052 -0.0051215887 0.160966 0.06379135 0.01148124 0.0038526803 -0.0001321435 0.09371691 0.20165624 0.2105402 0.22180054 0.040099293 -0.1157714 -0.14656907 0.012434721 0.39621484 0.5886872 0.64794797 0.68884265 0.67671704 0.67788255 0.15989918 0.18305384 -0.08914493 0.60530823 0.62324905 0.040037297 0.01303483 0.1541148 0.07045822 -0.057637863 0.51087403 0.32634753 0.14786515 0.030586872 -0.0071413647 -0.08312386 -0.1387062 -0.24506302 0.22041902 0.5284003 0.43573308 0.058098964 0.6362392 0.51397485 -0.047211096 0.68420935 -0.18046464 -0.25664794 0.6788007 0.15815428 0.25802153 0.037977196 0.18218182 0.32247776 0.50538003 0.003555093 0.49483758 0.5052833 0.45846897 0.32455602 -0.05628118 -0.37642643 -0.4960183 0.3448032 0.41954792 0.24214554 -0.4324947 -0.39769363 -0.25732714 -0.17034747 -0.31785578 -0.18547936 0.3004452 0.34148246 -0.08372973 -0.14530382 0.3623347 -0.08105889 -0.0902613 0.37856284 0.26346642 -0.09376415 0.35108232 0.3684252 0.46120626 0.04045576 0.13356894 0.16806218 0.30055788 0.32890207 0.50698054 0.5004989 -0.003816863 -0.24285205 -0.047275327 0.14502676 0.28239155 0.28161496 0.08796425 0.15979639 0.27011287 0.24572033 0.29821146 0.37012845 0.33478713 0.52638745 0.5172414 0.4416502 0.30174893 0.19696525 0.4735061 0.29227418 0.30971548 0.31760737 0.3020766 0.3053971 0.32348898 0.3953793 0.40607017 0.076851256 0.11049803 0.5305659 0.50601256 0.13252132 0.26405987 0.44106472 0.49076754 0.50726485 0.4960457 0.18342336 0.28763652 0.31348103 0.41184932 0.5080927 0.4771305 0.43178874 0.5949821 0.64577377 0.63856196 0.5396603 0.5076411 0.7658537 0.732258 0.694517 0.703928 0.697901 0.6668471 0.3594728 0.43718377 0.43781984 0.4321407 0.35255727 0.47065777 0.4742146 0.6181345 0.6418389 0.61023736 0.25075352 0.2814539 0.35753047 0.377257 0.3602742 0.5806699 0.5179816 -0.245765 0.14255098 0.16923223 0.22164753 0.29052815 0.31877062 0.39737564 0.10770272 0.060618684 -0.0059532225 -0.25745112 -0.38399005 -0.14773086 -0.057134293 -0.02144003 0.045872465 0.12478474 0.32094353 0.71238923 0.688943 0.5979407 0.0782211 0.10479654 0.7267534 0.71940243 0.7117616 0.7141097 0.68401 0.6187623 0.3424912 0.17316952 0.16849619 0.14750983 0.074846715 -0.02116473 0.7078123 0.6916042 0.2286847 0.012158766 0.16954938 0.18928799 0.15584052 0.08699649 -0.073112965 -0.16499949 0.6665704 -0.0750476 -0.20851955 0.4769621 0.5464943 0.4957088 0.2509704 0.2868111 0.6220041 -0.02116108 0.17465672 0.65608275 -0.13077065 -0.0073541105 0.15297134 0.4802257 0.5914403 -0.12798248 0.027774371 0.32261893 0.56039464 0.6092595 0.5181295 0.55058616 0.6101374 0.18502438 0.56211036 -0.2650123 -0.61816424 -0.53455937 -0.5805347 0.32668456 -0.13367644 -0.5338778 -0.6296342 -0.3583906 -0.30569485 0.14209142 -0.43316436 -0.24866031 0.20043783 0.11663547 -0.29344368 -0.4827906 0.30519632 0.16203755 0.100842655 0.37363628 0.3593752 -0.14841896 -0.093191415 -0.078091376 -0.2742591 -0.26173568 0.36346394 0.4207198 -0.088529244 -0.0060104467 0.17942725 0.15925924 0.28158498 0.30473608 0.4614082 0.45396033 0.43778807 0.103232756 0.007573381 -0.08017091 -0.15648569 0.07379992 0.12030549 0.12586775 0.21197209 0.23442526 0.23496601 0.16370192 0.20837875 0.47202736 0.40307713 0.31187135 0.2724927 0.073647164 0.10845794 0.4312899 0.35471818 0.14581457 0.46313584 0.47588864 0.25324792 0.24273878 0.30528545 0.4032433 0.44477713 0.43151146 0.34252706 0.5954089 0.6493526 0.5718822 0.43779612 0.42301834 0.78242517 0.80358773 0.78959537 0.7105268 0.78235257 0.7980105 0.76166105 0.6622951 0.57793367 0.60483503 0.616649 0.6190264 0.55144525 0.6654613 0.7286967 0.6201763 0.5616601 0.46632496 0.5126661 0.33735624 0.3694861 0.29239196 0.4807677 0.52705497 0.54313195 0.55654573 0.5910069 0.52290046 0.5174955 0.20223206 0.33984137 0.0077099055 0.24988078 0.23333456 0.18168707 0.39345536 0.44179994 0.4905812 0.5096394 0.48403454 0.41602826 0.3769475 0.109776504 0.2054652 0.20903452 -0.034488797 -0.10505279 -0.14879538 -0.12794593 0.093439095 0.15897013 0.4150362 0.68192977 0.66929245 0.47012243 0.31935588 -0.0764253 0.00038110465 -0.22648433 -0.14201298 -0.15878516 0.13000768 0.69585073 0.7075284 0.69969034 0.49760684 0.3917727 0.1241551 0.0033130944 -0.12022866 -0.25977814 0.015212774 0.71463716 0.7271464 0.7201282 0.