# vtk DataFile Version 2.0
Really cool data
ASCII
DATASET POLYDATA
POINTS 3282 float
15.460623 12.760843 0.77189094
15.433509 12.623389 1.1872896
15.478107 12.967514 0.96852
15.435342 12.976492 1.1140087
16.294703 11.009884 0.17929287
16.276867 11.107747 1.3939745
16.040329 11.751192 -0.23367499
15.727325 11.826971 0.7198066
15.71095 11.906746 1.4220713
15.908821 11.888837 1.9731839
15.86892 12.445072 -0.028861701
15.543584 12.457187 0.68508554
15.540277 12.372169 1.4329563
15.955493 12.435237 2.3007693
16.230003 12.612208 2.6494353
15.998462 13.156086 -0.060991704
15.706935 13.20946 0.55907017
15.595346 13.2841 1.2953961
15.961346 13.29247 2.091513
16.046364 13.809699 0.13899854
16.271807 14.3548155 0.67253184
16.05392 14.049173 1.4276881
16.226984 13.935996 2.03153
16.993462 10.267551 -0.024617635
17.092636 10.125329 0.46285835
17.150969 10.149692 0.96162796
16.821424 10.865901 -0.9158639
16.711733 10.714927 -0.41913426
16.68225 10.482253 0.5410319
16.878988 10.730716 1.6277106
16.761288 11.032348 2.0278711
16.905169 11.332667 -1.2250986
16.816801 11.891651 2.8970776
16.80477 12.103179 -1.1221285
16.630789 12.350283 2.8953733
16.673512 12.991081 -0.76018965
16.493649 13.586422 -0.36752248
16.460571 13.525799 2.4162998
16.761915 13.444305 2.8602858
16.713644 14.380838 -0.16829365
16.446291 14.643912 0.69322324
16.652803 14.5346575 2.1456869
17.18631 14.39701 2.8308816
16.952133 15.00484 0.050510705
16.931612 15.152756 0.46297988
16.780336 15.11543 1.2347629
17.193893 15.033951 2.2547035
17.628529 10.266742 -0.8968866
17.53243 10.071869 -0.2791161
17.503187 9.92073 0.49957976
17.629152 10.131747 1.3476729
17.921377 10.948722 -1.6869951
17.51846 10.723994 -1.3261826
17.313137 10.407072 -0.74599206
17.51837 10.3838005 1.6596737
17.273087 10.899925 2.181034
17.480267 11.3206215 -1.6079592
17.648125 12.007464 3.2920191
17.934599 12.307544 -1.9354529
17.532122 12.335636 3.291297
18.08645 13.75305 -1.7119426
17.847414 13.038297 -1.5342803
17.83228 14.744543 2.993762
18.091944 15.161525 -0.7177462
17.634027 15.36338 -0.14054625
17.274046 15.392958 0.34853935
17.279531 15.405988 1.8150278
17.598972 15.20811 2.3438025
17.606314 14.853671 2.8536363
17.95092 15.67348 0.3160439
17.628674 15.633906 1.3641301
18.675337 9.799988 0.7462618
18.462862 9.980488 1.2477483
19.108015 10.3182 2.8077908
19.42273 9.468783 3.9172451
18.530329 10.833021 -2.0141554
18.238256 10.897336 2.7161543
19.377108 10.255938 4.35576
19.167948 11.4700165 -2.837819
18.628534 11.357241 -2.3074298
18.945314 11.41659 3.6133862
19.161638 12.519055 -3.0193114
18.340673 12.404981 -1.929015
18.86747 12.489522 4.128398
19.39035 12.119193 4.7827787
19.244566 13.538954 -3.318035
18.681433 13.529737 -2.4485843
18.34225 13.52146 3.5336704
19.102722 13.382633 4.2015214
19.161438 14.29702 -3.0477605
18.874588 14.491438 -2.5253537
18.263395 14.383173 3.3185048
18.811298 14.095868 3.8365495
19.054186 14.982823 -2.2356305
19.089066 15.504367 -0.7458229
18.767757 15.496605 2.558525
18.211708 14.934673 2.9039433
18.515228 15.599214 0.08110756
18.104813 15.689555 1.0399938
19.983818 8.755521 3.6513329
19.972982 8.913511 4.4015985
19.71168 9.827442 -1.7903306
19.86 9.762766 -0.599892
19.51213 9.829786 0.7261087
19.015455 9.810089 1.0617696
19.513285 9.351065 3.8143704
19.54206 9.729456 4.510327
19.986374 9.496087 5.0506926
19.327805 10.522321 -2.5463252
19.864685 10.474126 5.1909184
19.705545 11.448345 -3.0389857
19.734076 11.688242 5.144218
20.047922 12.245065 -3.6204975
19.498302 12.171019 -3.30028
19.969023 12.391565 5.2437067
19.817593 13.619761 -3.781525
19.363604 13.667716 -3.5388362
20.053066 13.019704 5.0175443
19.818863 14.272615 -3.6695921
19.587984 14.214311 -3.5219555
19.765974 14.350064 4.32927
19.720139 14.946991 -3.1930563
19.513113 15.438836 -2.4502301
19.85244 15.3256645 3.5273645
19.610134 14.933937 3.8831747
20.184402 16.59487 -1.8179213
19.586906 16.013857 -0.6239824
19.607237 16.3093 1.2013948
19.714777 16.221718 2.2542179
20.257027 17.177975 -1.2911383
20.153837 17.203953 -0.6685318
20.012205 17.008137 0.6372278
20.30963 17.164808 1.542771
20.223312 17.065039 1.9695228
20.93485 7.829915 3.609533
20.948675 7.7595162 4.3389144
21.125656 7.918696 5.2222195
21.270159 9.174006 -4.4311876
20.533312 8.817083 2.6230755
20.548178 8.590937 3.1388721
20.365433 8.431334 4.4990716
20.627684 8.676949 5.1791
20.99876 8.829891 5.7303247
21.247677 9.61683 -5.5204024
21.013893 9.627572 -4.7375636
21.019789 9.772708 -3.434819
20.963253 9.438143 -2.56154
20.241348 9.59147 -1.6096306
20.360914 9.639792 -0.62202054
20.779343 9.799959 0.3203267
20.379833 9.5909815 5.533777
20.709768 9.666613 5.7833724
21.342522 10.420229 -5.8284717
21.212088 10.2425165 -5.5293884
20.877234 10.124135 -4.1853228
20.546263 10.66182 5.7761383
20.973572 11.681471 -4.08511
20.689508 11.562717 5.8157644
20.393202 12.547175 5.4945345
20.493706 12.23038 5.604858
20.803728 13.198772 5.384991
20.690275 14.428316 -3.87718
20.37544 14.723502 -3.5784936
20.512278 14.997178 -3.626784
20.755415 15.233607 -3.417532
20.539322 15.106287 3.976131
20.696165 15.959326 -2.8089218
20.618114 16.56406 -2.4625385
20.70743 17.00992 -2.1283076
20.491747 17.441717 -1.2882066
20.48608 17.486843 -0.5861334
20.419699 17.373165 1.2740226
20.717537 17.180668 2.2513394
20.886038 17.703003 -1.3561027
20.823982 17.737312 -0.68057853
20.852365 17.718685 0.5391922
20.827862 17.613548 1.4084859
21.773802 7.1273932 2.875838
21.894714 6.8169103 3.5459938
21.797684 6.879123 4.489172
21.755642 7.2423024 5.235066
22.146097 7.266722 5.701176
21.912287 8.32668 -4.071415
22.213507 8.101063 -3.2907786
22.037554 8.216445 -2.7518332
22.046726 7.8688083 1.910701
21.587788 7.392845 2.7161815
21.409101 7.354203 4.7842917
21.667147 7.508166 5.418266
21.887594 7.719196 5.874491
21.973505 9.035055 -6.1825466
21.494362 8.998176 -5.2960343
21.461342 8.914067 -4.8163114
21.517944 9.06316 -1.7229232
21.769325 8.406551 6.0702
21.741758 9.715432 -6.2759247
21.462608 9.568389 6.1019077
21.707653 10.448715 -6.0194826
21.48472 10.615342 6.089803
21.61402 11.695987 -5.1077447
21.624283 11.4054 6.025765
21.93043 12.062571 -5.4350758
21.588013 12.533999 5.8508897
21.211426 12.957825 -4.1350145
21.195665 13.232502 5.5396886
21.665977 13.041985 5.786976
21.563988 14.467119 -3.7248425
21.62844 14.387763 4.773969
21.79922 15.703015 -3.026273
21.617712 16.421717 -2.71572
21.615534 16.328411 3.6105149
21.548023 15.923436 3.7126372
21.393806 17.35932 -2.1393125
21.675774 17.032915 2.9948237
21.554249 17.635103 -1.8593838
21.395529 17.797087 -1.4312514
21.229164 17.856634 -0.8062201
21.491903 17.919096 0.706589
21.580421 17.782125 1.3146727
21.813751 17.614122 2.0959437
23.346708 4.7865005 -1.8692248
23.413097 5.231261 -2.2763078
22.655628 6.301862 3.3970652
22.735434 6.3127894 4.1734824
23.478996 6.4574747 -7.4887877
22.758263 7.078525 2.1445072
22.440138 6.52563 2.9740236
22.472965 6.5090346 4.3943634
22.466946 6.8590565 5.3895807
22.862858 7.193697 5.9248486
22.303047 8.050324 -3.3373537
22.937973 7.6369677 1.7774745
22.449076 7.60326 6.117542
22.21708 8.580678 -5.934043
22.371435 8.690463 -1.4904437
22.991188 8.7507 -0.61582816
22.734049 8.222941 6.30742
23.352934 10.061031 -9.876639
23.279121 9.809176 -9.340067
23.254692 9.69963 -8.518861
23.25678 10.634758 -9.96033
23.117733 10.588328 -9.492643
23.04193 10.588139 -8.880503
22.905767 10.359669 -6.9501953
23.316256 11.363317 -9.91639
23.214594 11.466049 -9.42826
22.415741 11.168723 -6.1327276
23.240597 11.77531 -9.053472
23.020823 12.136263 -5.7560234
22.682646 12.478957 6.090934
22.524143 13.39939 5.89
22.128397 14.716444 -3.4653447
22.32093 14.239844 5.189175
22.656195 15.360094 -3.200159
22.874079 15.349089 4.4042497
22.567574 16.48951 -2.450362
22.611506 16.345295 3.9139178
22.271568 16.984987 -2.4597037
22.303722 16.936392 3.335148
22.418829 17.780603 -0.20118931
22.437744 17.749775 0.55120665
22.03717 17.832825 1.2136533
22.812696 17.607994 2.0808194
24.276716 -1.8403376 0.40147752
24.254856 -1.3729534 -0.03082022
24.195704 -1.5255018 0.47167623
24.272898 -1.392186 1.0178394
24.249231 -0.687798 0.058235683
24.169321 -0.70369565 0.45190248
24.30084 -0.7000828 1.1491793
24.414263 -0.06270516 0.49551493
24.308414 -0.0649561 1.0238488
24.321003 2.9880288 -2.0872233
24.2206 4.145682 -3.2250628
24.101227 3.6879706 -2.4014354
23.779005 3.9661884 -1.5340598
23.963339 3.8378143 -0.9816437
24.222927 5.1161923 -7.460421
24.364206 5.1557045 -5.230256
23.847557 4.720877 -3.1265802
23.531467 4.436048 -2.1840208
23.507837 4.356837 -1.591224
23.948938 4.4590025 -0.7524332
23.977451 5.8073506 -8.158933
23.872627 5.6837606 -7.458121
23.957462 5.601319 -6.7759423
24.123793 5.687668 -5.5107756
24.277868 5.339626 -4.5311356
24.06513 5.1419563 -3.4601955
23.510624 5.781661 -2.2216341
23.481611 5.73827 -1.2694484
23.770636 5.303524 -0.7749447
23.55653 6.3558464 2.7252667
23.326082 6.134227 3.8736544
23.591124 6.320445 4.335951
24.127663 6.3699493 -8.672382
23.84647 6.392274 -8.325362
23.582434 6.374434 -7.486679
23.620285 6.477827 -6.81379
23.986677 6.2788615 -5.6971264
23.782497 7.0528026 -4.7709055
23.866518 6.160346 -3.3067045
24.143208 6.058094 -0.6301681
23.2387 7.1904693 1.6408958
23.100868 6.6612806 5.085221
23.860884 6.965358 5.7362976
23.76392 7.1369195 -8.178489
23.6051 7.075465 -7.399382
23.611929 7.5632973 -4.381891
23.561367 8.202667 -0.466483
23.54257 9.283563 -9.256887
23.72988 9.093576 -8.662521
23.838903 8.613878 -7.821505
23.886028 8.413599 6.392432
24.17993 9.9454565 -10.652554
23.76848 9.801358 -10.156402
23.49547 9.668209 -9.685899
23.996437 10.62587 -10.765933
23.594364 10.45662 -10.298817
23.807959 9.926257 6.1340723
24.115526 11.237695 -10.821871
23.62709 11.471105 -10.331981
23.765461 11.586781 -7.2587357
23.912306 11.311492 5.99071
23.784859 11.908423 -10.090564
23.786144 12.226477 -9.62474
23.471117 12.094161 -8.78086
24.113523 12.482904 -7.486101
23.05915 12.309359 6.1681247
23.238346 12.951949 -5.2114353
23.658201 13.678736 5.625169
23.722439 14.285995 -4.5236955
24.212477 15.102256 -4.276049
[...]
POINT_DATA 3282
SCALARS features_00 float 1
LOOKUP_TABLE default
0.6358572 0.6516981 0.641456 0.6448957 0.6305145 0.6443741 0.65048885 0.6553501 0.6705218 0.6840754 0.6158168 0.63294226 0.66013116 0.6743794 0.64878297 0.5959301 0.6203493 0.6457292 0.6595612 0.5984794 0.60568744 0.6441718 0.6362747 0.56243163 0.55885744 0.5436557 0.5222508 0.5624231 0.58085567 0.5391857 0.5610077 0.48338115 0.5715105 0.4993416 0.59811854 0.5193743 0.5516736 0.61397713 0.54243785 0.5207448 0.5875279 0.5768982 0.46206564 0.48364383 0.5112282 0.5686296 0.5129303 0.48561975 0.52323544 0.5319685 0.4909122 0.38146904 0.45497847 0.51967424 0.46544692 0.46296164 0.4032472 0.40601292 0.29224235 0.42429206 0.28671357 0.30213 0.38288474 0.2735542 0.3714518 0.4581219 0.5187165 0.4548176 0.41785198 0.35182407 0.4660105 0.40193617 0.41840503 0.16215302 0.33371592 0.3045522 0.29129025 0.34475222 0.20493272 0.25929797 0.22872907 0.22243927 0.26152444 0.2552686 0.27660906 0.30575284 0.27051514 0.30735114 0.24643989 0.3445372 0.32248285 0.32656664 0.2671485 0.32201338 0.19132593 0.29754585 0.34245124 0.2545307 0.37591612 0.36674762 0.4032485 0.275813 0.18057443 0.23082784 0.3181675 0.33269316 0.38126618 0.420375 0.2662139 0.41807294 0.1681395 0.30644536 0.19639084 0.19936931 0.26903486 0.32934004 0.3223501 0.2485227 0.36575258 0.36266607 0.21916017 0.37152362 0.34374017 0.23013768 0.23268452 0.40709049 0.21719489 0.23312753 0.25109398 0.40863454 0.34999192 0.28611353 0.3435002 0.3247055 0.42212558 0.43428913 0.43207854 0.33506703 0.28662154 0.35969338 0.41648787 0.42296454 0.41746932 0.43707088 0.39465404 0.24861357 0.120927654 0.10338867 0.10801023 0.039789736 0.4307214 0.42628506 0.39187804 0.4128666 0.33705798 0.4036498 0.17109452 0.3159265 0.26654804 0.27748066 0.24955165 0.34651962 0.36628297 0.36132866 0.35150066 0.17813694 0.3908069 0.45136672 0.47766912 0.43420404 0.38844156 0.36363643 0.38335675 0.4670511 0.43219826 0.41439068 0.4035372 0.45032948 0.48865312 0.48113525 0.45589566 0.44849092 0.22444616 0.1659551 0.15063718 0.36392558 0.43188012 0.4546119 0.4445507 0.42480367 0.42423287 0.40932894 0.3557954 0.030883033 0.3890419 0.4280761 0.38052362 0.37206665 0.3357327 0.2335442 0.2730022 0.18282293 0.25803164 0.24523576 0.25303763 0.254928 0.28452864 0.18366456 0.30763102 0.4175157 0.2476673 0.20483777 0.5187435 0.40200123 0.53572994 0.511921 0.47013324 0.44741434 0.43442708 0.4455571 0.46800143 0.41075248 0.47353095 0.47204518 0.3688417 0.40710473 0.46016508 0.48016453 0.4620991 0.43770468 0.15590262 0.36636576 0.4155227 0.3679275 0.0042811306 -0.06422551 0.34248176 0.5803729 0.49541005 0.3060623 0.60974425 0.56322753 0.475928 0.2392382 0.6287782 0.5944499 0.24005589 0.5520119 0.06367697 0.20817459 0.22444558 0.19925329 0.18596448 0.11195982 0.11006817 0.39816934 0.18009375 0.48944777 0.32476652 0.4869818 0.42814398 0.4260086 0.3341595 0.91013074 0.8571978 0.8952577 0.9001588 0.81010425 0.82331496 0.8178506 0.752426 0.76131225 0.32739723 0.23460805 0.3321767 0.49572736 0.5122527 0.35377544 0.061399713 0.2577192 0.41036665 0.4976871 0.515593 0.40904176 0.37852967 0.32360673 0.097931035 -0.0013440256 0.17965691 0.4208358 0.5444399 0.5340549 0.38958135 0.4266964 0.39069596 0.39216274 0.39220196 0.3735336 0.3123443 0.11107184 -0.11377668 0.107325405 0.49054167 0.35625875 0.43698907 0.36568165 0.31821352 0.30388275 -0.11186716 -0.17210954 0.41364715 0.26344508 0.084404014 0.25970292 0.61772513 0.5870364 0.5301368 0.6397557 0.62671936 0.116792075 0.64380336 0.64391935 0.14158219 0.02312569 0.61321974 0.55579126 0.4864007 0.19015706 0.15884668 -0.0035941284 0.12469283 -0.09856428 -0.04511743 -0.11370436 0.08911643 0.0682776 0.4447046 0.49363768 0.38331872 0.3936174 0.425572 0.45862663 0.41603047 0.4515735 0.47506946 0.5476444 0.5603417 0.4566106 0.4794771 0.4882921 0.70858103 0.6318679 0.5663967 0.5078487 0.49283665 0.76475435 0.74201035 0.6685303 0.75121677 0.87275875 0.9241546 0.94968283 0.720585 0.7948036 0.9171196 0.8672004 0.5991825 0.77916026 0.79521763 0.77641016 0.65679455 0.6714337 0.7218892 0.7344428 0.18933636 0.22482033 0.6699315 0.7042364 0.15719889 0.17897615 0.26483247 0.4574868 0.4187309 0.21479422 0.22747271 0.1658718 0.2535929 0.47866565 0.43080127 0.29025155 0.30903846 0.22358096 0.07765578 0.47302324 0.36387244 0.38683367 0.42873964 0.24945424 0.33648905 0.2124299 0.2539419 0.2482737 0.2430654 0.21721756 0.60797244 0.561133 0.18385704 0.6155751 0.054803398 0.08394549 0.60327065 0.56436455 0.5196681 0.04506222 0.41643515 0.31366986 0.16273002 0.054019954 0.01766222 -0.0055563403 0.027096374 -0.03968324 -0.053545333 -0.061829843 -0.11515039 -0.11726367 0.13675657 -0.17314172 -0.12234779 0.07366153 0.12519501 0.3414764 0.4166326 0.35334265 0.3487817 0.35062072 0.41001445 0.4512595 0.48625073 0.47629622 0.5036696 0.40772104 0.48894632 0.5007385 0.4890065 0.6666256 0.6076939 0.48567048 0.4864473 0.46776196 0.7658001 0.7507998 0.486736 0.4661067 0.81092465 0.7999177 0.74257183 0.65005535 0.55418146 0.49331146 0.4691085 0.8219687 0.8004682 0.75955987 0.685963 0.587815 0.7862984 0.69738483 0.8077609 0.84635556 0.83291817 0.77444565 0.82565475 0.2586526 0.2615856 0.7608607 0.22354408 0.20841315 0.7249148 0.17499332 0.21361874 0.67059636 0.6453088 0.61952984 0.44904563 0.09214144 0.11709571 0.6329982 0.6099757 0.55386066 0.3442911 0.2020365 0.33378652 0.49706334 0.61766016 0.5757186 0.4518369 0.33104688 0.4247868 0.46055448 0.55138993 0.5275091 0.28345057 -0.093407854 0.033455864 0.37462008 0.49459517 0.2599748 0.22163092 0.21302545 0.51135504 0.16706276 0.17478985 0.46768206 0.12482016 0.5037097 0.3638111 0.32831308 0.26312408 -0.024816379 0.21956271 0.10964945 -0.01949507 -0.006959889 -0.07915706 -0.027204948 -0.050877772 -0.047081538 0.023204446 -0.013628051 -0.09540032 -0.089723036 -0.25684103 -0.015882231 0.19619715 0.21174523 -0.18851967 0.038473472 0.070019364 0.038984664 0.022020698 0.3164016 0.34915817 0.41416138 0.020314664 0.4365249 0.4563422 0.4230647 0.69314444 0.43051863 0.42116138 0.7680243 0.43185726 0.41142637 0.8131779 0.39814577 0.3990771 0.82146794 0.79185843 0.7330121 0.6236447 0.45453602 0.69419503 0.6409226 0.6681256 0.6629364 0.53384423 0.6401328 0.6861402 0.6802397 0.41703483 0.7004628 0.22676817 0.27673036 0.7016841 0.15407246 0.14387372 0.6668403 0.49414384 0.12795362 -0.044624314 0.18665768 0.5277815 0.6754708 0.63235986 0.51616174 0.16731416 -0.028123118 -0.007381236 0.06929091 0.04580476 0.29279304 0.4164918 0.6666881 0.663182 0.63671416 -0.06871368 -0.09712273 0.65967494 0.6507744 0.4966455 0.5527377 0.5985183 0.5571139 0.62891334 0.4981373 0.592035 0.38740152 0.5126463 0.5369032 0.33248234 0.26779866 0.23717314 -0.14948314 0.043665398 0.15944834 0.33047497 0.15257035 0.18466613 0.2302697 0.16005255 0.21330005 0.2589769 0.16545326 0.24708006 0.24124174 0.14668223 0.15037882 0.014290869 0.023232419 0.04552044 0.15142465 0.13489169 -0.009338725 0.18186936 0.19032548 0.012744361 0.10066521 -0.027844194 0.20856977 0.19548237 0.20325828 0.20006171 0.074712716 0.021286793 -0.10919974 -0.089721814 0.20992231 0.20954362 0.22037122 0.06293149 -0.00019803643 0.29712212 0.17237295 0.1793146 0.09521527 0.015722401 0.015372083 0.32514256 0.33129537 0.3627517 0.6125812 0.42809704 0.7413445 0.36431268 0.42321393 0.7803936 0.24966884 0.2978569 0.798306 0.7352389 0.6197499 0.471023 0.29175678 0.25070566 0.5908123 0.61304426 0.6369502 0.64704204 0.54833376 0.5781728 0.63406724 0.6253967 0.47560662 0.6281924 0.15802953 0.19731778 0.26755044 0.59544605 0.09999305 0.15770483 0.14820471 0.0919217 0.17226765 0.5441942 0.5789474 0.33644295 -0.066171564 0.06521128 0.45759016 0.6942034 0.6641488 0.0567424 -0.058981698 0.39308512 0.67613 0.5687844 0.5758094 0.6516895 0.56441605 0.5959232 0.5870828 0.6006597 0.5009254 0.5050243 0.3890478 0.33288556 0.39642137 0.31599015 0.24931607 0.23513806 -0.13928388 -0.18977302 0.15507987 0.020726824 0.23056616 0.26183772 0.26489168 0.27238274 0.28329903 0.09658223 0.289033 0.05231992 0.05669646 -0.004380269 0.020770233 -0.031774536 0.30373266 0.11910948 0.27669007 0.2998799 0.15509322 0.25895244 0.28105307 0.17727259 0.19747356 0.12171023 -0.016452558 -0.097874574 0.10544601 0.100253746 0.11009071 0.14636049 0.13376194 0.049102314 -0.049157836 -0.0035843253 -0.007638313 -0.0038850382 0.22588706 0.2827407 0.29420418 0.100493334 0.08055121 0.10456395 0.05001328 -0.02548638 -0.06964356 -0.022641622 0.38388842 0.048087962 0.4588556 0.43424624 0.46899056 0.7286837 0.102360986 0.15614079 0.22209448 0.35523242 0.3301962 0.26457834 0.09822203 0.11913141 0.62912893 0.6208304 0.5023732 0.5747672 0.5299862 0.57031196 0.612664 0.6131025 0.20070997 0.33925462 0.49225733 0.37118036 0.4494971 0.5957969 0.57664627 0.28159174 0.1387132 0.13668138 0.15898147 0.097201504 0.5690446 0.16138458 0.08686344 0.47599864 0.41839686 0.6652684 0.3323859 0.64055336 0.5816866 0.13645306 0.5037043 0.5322033 0.61073744 0.49549037 0.53147864 0.5670996 0.46722183 0.47133422 0.41438305 0.37770897 0.2671796 0.07579084 0.13692315 0.14604975 0.22809663 0.062354427 0.29302227 0.042478144 0.31281376 0.04935294 0.30842787 0.19302616 0.07824807 0.29216158 0.2699765 0.299234 0.17174904 0.31824243 0.45843685 0.29956996 0.3044114 0.46602982 0.35235322 0.19643483 0.22118822 0.118393786 0.3630706 0.065996185 -0.10329077 -0.070044376 0.16360949 0.14947902 0.0956702 0.06875852 0.08343007 -0.08860633 0.38332176 0.16763952 0.098944135 -0.053705096 0.056050196 0.09312346 0.1841093 0.4620899 0.30613342 0.25078237 0.22745591 0.08680794 0.15311264 0.19369435 0.20813057 0.20476773 -0.18023305 0.47452196 0.338699 0.16601759 0.12836204 0.18161951 0.19892186 0.16055697 0.2880797 0.40167573 0.4444165 0.13450637 0.1352815 0.16539967 0.16355568 0.07219821 0.17790219 0.2560198 0.3927304 0.34960774 0.25068888 0.25748834 0.6483153 0.66251606 0.58385897 0.6278519 0.65015304 0.6589464 0.44045576 0.5486741 0.60749924 0.5788969 0.49627325 0.5754526 0.59007275 0.3956306 0.28280276 0.23547976 0.38826197 0.44751096 0.54055184 0.56263614 0.40528744 0.37129402 0.51594317 0.5011134 0.38539124 0.3470211 0.3878339 0.52547514 0.45719266 0.42856658 0.53302276 0.3866429 0.45602137 0.46364033 0.45103115 0.43311793 0.41432276 0.16687669 0.11487061 -0.028595505 -0.11607618 -0.018170938 -0.035856016 0.17560542 0.25112772 0.014569824 0.27708885 0.05003391 0.26527458 0.07501632 0.24009049 0.26457962 0.13057539 0.34664667 0.2238034 0.23912342 0.3998029 0.29357612 0.55501246 0.31320423 0.5507367 0.53198 0.15300548 0.5017013 0.40517777 -0.02785435 -0.11465875 0.0940433 0.2479265 -0.3985221 0.30553445 -0.44269943 0.43781376 0.3466376 0.35061774 0.110729486 0.1395346 0.45779628 0.44623005 0.41219664 0.3674235 0.30502424 0.19483094 0.055897642 -0.07789462 -0.100587726 0.44204926 0.42048663 0.39450297 0.35368598 0.2557254 0.1337774 0.09993942 0.14498965 0.08814816 0.3133663 0.14119521 0.3259952 0.3904701 0.3181336 0.14775869 0.11840835 0.09234862 0.04598467 0.1194479 0.36026573 0.34772274 0.050380047 0.3090791 0.22821882 0.4136623 0.43489018 0.4774992 0.49649328 0.64004433 0.6429386 0.6347403 0.5763482 0.6414155 0.33368996 0.46027297 0.40467188 0.37870982 0.12442745 0.07561463 0.5085982 0.45345187 0.47841263 0.49081603 0.37950018 0.3980598 0.36119086 0.34372064 0.14381549 0.31377473 0.22388302 0.11757724 0.19532315 0.3010561 0.08159466 0.21514662 0.30649495 0.27534106 0.2424689 0.30358028 0.3177839 0.36200532 0.27269262 -0.005511448 0.21459974 -0.031054616 0.19667651 0.19176123 0.37910777 0.010338113 0.42211455 0.18953685 0.5139246 0.18484996 0.22009021 0.56188357 0.56406707 0.5939258 0.630123 0.66948533 0.54424685 0.51139337 -0.118213296 0.6151175 0.6488904 0.39245075 0.27834553 0.2890485 0.29787743 0.28955075 0.3075824 0.39928293 0.33190012 -0.33809084 0.39881417 0.39573306 0.38838616 -0.37320957 0.18476832 0.21625528 0.33334452 0.4029682 0.41643223 0.34671944 0.22504148 0.14689359 0.07415299 0.01390817 0.36712262 0.38087675 0.32250842 0.15729791 0.23256923 0.31975454 0.2841534 0.31520575 0.44121534 0.5025154 0.51915705 0.5222561 0.5192388 0.42335814 0.51711714 0.5427015 0.5517404 0.5468055 0.5806182 0.5958507 0.599061 0.5228505 0.50076437 0.43001202 0.35352647 0.34395456 0.28489336 0.24649592 0.50212955 0.48032883 0.40212724 0.14144917 -0.215693 0.5371429 -0.008933097 0.521782 0.44057035 0.13476111 0.31390265 0.12596186 0.16930549 0.0886842 0.19890022 0.12525262 0.3128763 -0.14308408 0.5090667 0.43721062 -0.17850496 0.52836686 0.48224908 0.39735264 0.5191293 0.30932975 -0.09341547 0.39839083 0.13859731 0.027648196 0.09223379 0.22064568 -0.012549706 0.0633485 0.37844265 -0.07208584 0.40776613 -0.054353565 0.42863852 0.073657945 0.46622354 0.15645179 0.567235 0.5869092 0.5274434 0.16627291 0.39581048 0.5233023 0.5687248 0.6382414 0.69172657 0.74326634 0.8029032 0.5302191 0.38903454 0.45908242 0.7028957 0.7739875 0.83425784 0.51035744 0.48305297 -0.0032431483 0.49389693 0.52061594 0.7101884 0.7917322 0.8692858 0.43681175 0.5882683 0.63659227 0.83563083 0.2725171 0.30865806 0.27597702 0.26698118 0.26038074 0.29761088 0.2857086 -0.10887384 0.3921312 0.3283995 0.33733147 0.2755717 0.23353809 0.27118647 0.21663366 0.39703488 0.34423482 0.25379878 0.3617087 0.26570806 0.3881898 0.36783504 0.42263335 0.45554823 0.4072786 0.51903117 0.5481354 0.5636007 0.54266375 0.5169166 0.5581957 0.5839408 0.5954577 0.5511255 0.520609 0.39248055 0.37268823 0.47765303 0.36848104 0.382814 0.33906394 0.37322825 0.29005772 0.31471232 0.15242332 0.5128309 0.455212 0.40676704 0.005034161 -0.0066873506 0.53948706 0.020218506 0.53645986 0.020715967 0.44697124 0.14830925 0.20649666 0.19470416 0.1108276 0.32969427 -0.07986139 0.42684755 -0.19940338 -0.28944853 0.32116932 0.6011561 0.65993685 0.53432906 0.50928634 0.42337954 0.6532742 0.68059814 0.5790303 0.5811354 0.6014353 0.60721934 0.5955702 0.30599087 0.47976607 0.58716124 0.518384 0.15347455 -0.083496444 0.0813071 -0.08374611 -0.08254215 0.30969247 -0.08739394 0.3793488 0.36468604 0.3667649 0.34872437 0.13178721 0.5233944 0.54664963 0.55747646 0.6526589 0.73290116 0.43515846 0.3926196 0.76385754 0.82754123 0.42089182 0.8873029 0.38727698 0.29003567 0.9254605 0.51511776 0.7535459 0.8607414 0.931876 0.52166814 -0.20670742 0.04751581 0.56162757 0.4292246 -0.18700542 0.4847023 0.2369228 -0.12042163 0.22345339 0.19183359 0.44870824 0.4644829 -0.1314354 -0.26119974 -0.07321977 0.5689758 0.2138492 0.2534394 0.5335567 0.5705396 0.59491986 0.3232945 -0.16011606 0.3599874 0.48436177 0.55598 0.4632017 0.42743143 0.19345197 0.6145684 0.5809492 0.5277331 0.37776095 0.35809785 0.4891774 0.5580483 0.5385398 0.578267 0.66195357 0.64713717 0.59786767 0.33030206 0.31664062 0.2860819 0.3521549 0.26095247 0.16809833 0.44784027 0.028878558 0.5148529 0.46692085 0.11904696 0.48544502 0.036660023 0.037695028 0.12504816 0.16219737 0.10532432 0.15865715 0.26120222 0.19090798 0.102117985 0.27665573 -0.04587249 0.449569 0.5678646 0.61736834 0.43483236 -0.28056732 0.408006 0.5359854 0.66530097 0.68428576 0.57645506 0.68523884 0.637609 0.64126 0.6345458 0.6223849 0.5527095 0.40267268 0.5596486 0.51560116 0.17106278 0.28218508 0.052485105 -0.03999033 -0.05415052 0.26230142 0.29921553 0.2691595 0.10440622 0.50978756 0.51446354 0.31653875 0.095881 0.50181174 0.5299072 0.533085 0.61050117 0.7388332 0.7796885 0.30385506 -0.22531128 0.7644187 0.82858515 0.9493006 0.4524232 0.95344836 0.5594244 0.8018291 0.89197564 0.605592 0.44100398 0.687899 0.5933684 0.60980844 -0.058542147 0.56035984 0.35592616 0.17951038 0.3762511 -0.59625953 0.56675667 0.2496169 0.17478243 -0.045174345 0.6122668 0.3865141 -0.0692364 -0.12373188 0.23965798 0.5110339 0.57236505 0.6032707 0.62142944 0.48236552 0.3544545 0.34896323 0.2847889 0.21052 0.43056554 0.518168 0.67063224 0.7068852 0.37133664 0.2519027 0.42041817 0.4017926 0.39019933 0.7701943 0.7744087 0.5797482 0.5046768 0.47377253 0.58519995 0.44837737 0.44828153 0.6134819 0.68899393 0.70806915 0.659407 0.20362781 0.24384409 0.25182548 0.26214752 0.21361664 0.34063327 0.28286088 0.21649635 0.14215848 0.51698756 0.38309705 0.17825045 0.53494024 0.1800156 0.35518658 0.09572552 0.16295165 0.07146131 0.13580412 0.36706305 0.2742884 -0.23359123 0.43313813 0.5450394 0.5961339 0.47628713 0.62980443 0.6422009 0.58042026 0.520527 0.6315255 0.63297415 0.6088191 0.5757735 0.5062748 -0.7114104 0.5088108 0.4434843 -0.12128949 0.24071367 0.39343518 0.12299788 0.378779 0.07054292 0.36603197 0.28648445 0.40696275 0.12687002 -0.26303008 -0.41601825 0.49797475 0.16544765 -0.15953285 -0.34290844 0.41004294 0.4744864 0.48853415 0.49823958 0.578426 0.26098782 -0.1515616 0.7390381 0.817207 0.31055975 0.03344858 0.8586024 0.54734886 0.85224795 0.5967444 0.60193336 0.72791654 0.81210345 0.6312338 0.63994455 0.14140388 0.5268462 0.6343131 0.64421827 0.6110324 0.6005416 0.5995767 0.540404 0.41881812 0.5978529 0.5726393 0.6129564 0.6726423 -0.08490439 0.22279313 0.45068774 0.5424182 0.7474797 0.7754609 0.34448886 0.22858818 0.40364245 0.27277642 0.3904329 0.4604197 0.814579 0.84153354 0.83617985 0.5466448 0.47541565 0.49108356 0.46511805 0.4671557 0.3736509 0.66586626 0.69674146 0.6849555 0.53127223 0.5231935 0.49506795 0.28270397 0.086499915 0.10885667 0.13421237 0.6364918 0.10946967 0.13606744 0.5032363 0.6003015 0.65522534 0.1780524 0.6239876 0.6174908 0.45626897 0.25544798 0.11328785 0.040860802 0.12590247 -0.13842294 0.18985201 0.35347718 -0.20934233 0.16140163 0.5204612 0.52831423 0.42963466 0.49269998 0.4728174 0.4912909 0.44626126 0.36529893 0.5124363 0.51688665 0.37570113 0.40914613 0.26292652 -0.14110063 0.44446415 0.40302488 0.31995612 0.25467536 -0.13569477 0.19349086 0.50189555 0.4040268 0.25183734 -0.284926 0.15798703 0.446173 0.46389437 0.29211804 -0.0500554 0.12074148 0.4093575 0.44400412 0.4387561 0.14635082 0.047102 0.37307867 0.05309882 -0.068460464 0.27070624 -0.1253806 -0.1567647 -0.25145012 -0.24579106 0.459716 0.48594892 0.4501598 -0.19323002 0.41332325 0.52007353 0.70026386 0.25205818 0.2969249 -0.027513307 0.7131033 0.78687644 0.5511757 0.547362 0.7297739 0.78724027 0.6049801 0.57212484 0.43855342 0.22492605 0.26044172 0.64200556 0.63529944 0.57808316 0.37625447 0.22923054 0.20315872 0.63987106 0.5867326 0.42745203 0.10765828 0.2656175 0.24756654 0.32154346 0.40020028 0.5201583 0.48586524 0.6279293 0.13341579 -0.069724545 0.57220006 0.7319967 0.7840993 0.45846584 0.14956887 0.53070587 0.56527066 0.7769567 0.81181765 0.7647625 0.20845807 0.23437557 0.29926017 0.11240792 0.41393083 0.8322183 0.8686898 0.87914956 0.49443862 0.51867545 0.375614 0.50257194 0.4214604 0.6187507 0.5265023 0.54849297 0.5310576 0.5093366 0.5590991 0.55343884 0.6114143 0.58465165 0.5464429 0.50971484 0.39041436 0.077708244 0.06226292 0.107928365 0.52139974 0.6556151 0.6720337 0.45661092 0.68773174 0.6809941 0.65755147 0.21335414 0.51068527 0.4723131 0.17402512 0.07390968 0.055405572 -0.07042909 -0.038471162 0.12236567 -0.026062414 0.09959912 0.19563442 0.16790476 -0.05088649 0.19258563 0.24445365 0.40451252 0.34350935 -0.044266485 0.29349285 0.35006982 0.37388203 0.26639786 0.19721282 0.2991922 -0.06974509 -0.09089049 0.27067915 0.24895935 -0.17321318 -0.20575652 0.17377357 0.48704016 -0.19977324 0.4567517 0.44167256 0.41434622 0.37273175 0.08136201 0.24708402 0.45468765 0.4328364 0.40919918 0.023408517 0.013170555 0.4013895 -0.32134932 0.3601568 -0.09165447 -0.07909615 0.31154862 -0.000855878 0.33384228 0.32215768 0.38493443 0.078401625 0.24303083 0.05392459 -0.012013406 0.15483019 0.07667701 -0.28688496 0.2672116 0.23648547 0.2959972 0.49577427 0.57068956 0.40013814 0.72027034 0.6501518 0.5377233 0.41765514 -0.53674686 -0.3376937 -0.2930391 0.30471602 0.787717 0.7365272 0.690014 0.49331912 0.023236398 -0.19106218 0.8119298 0.85096437 0.76275146 0.1822074 0.22824585 -0.050965257 0.8597125 0.44980407 0.41103232 0.5155666 0.5105037 0.4930657 0.4806702 0.5571487 0.5421177 0.5131138 0.6510851 0.6618692 0.56911534 0.5714048 0.654336 0.50118256 0.32851547 0.54625314 0.6272893 0.67069024 0.29621533 0.14045253 0.43446222 0.62906575 0.6677426 0.538264 0.5513088 0.5174044 0.64736986 0.6372366 0.5544028 0.49