# vtk DataFile Version 2.0
Really cool data
ASCII
DATASET POLYDATA
POINTS 4733 float
-33.528645 69.63412 15.53423
-33.60214 70.53169 15.189845
-33.609356 75.77563 11.564035
-33.56389 76.46162 11.143394
-33.689587 76.36861 11.568489
-33.632736 76.350716 12.114948
-33.554634 76.87493 11.549483
-33.554058 76.86925 12.33128
-32.694176 66.742195 13.591576
-32.694355 66.62616 14.396593
-32.745403 67.01389 14.973046
-32.702118 67.828476 13.010381
-33.062943 67.940384 14.006588
-33.07953 67.711845 14.451694
-32.916428 67.709595 15.461718
-32.900192 68.021255 16.14619
-32.83657 68.646385 12.7626095
-33.272667 68.61764 14.815512
-33.335094 68.889465 15.591913
-32.99575 68.52344 16.295994
-32.730206 68.75652 16.779438
-32.800007 69.12952 12.749389
-33.44158 69.21337 14.863474
-33.437283 69.558556 15.685934
-33.325134 69.60619 16.354223
-33.093494 69.729454 16.89035
-32.7978 69.95826 13.03772
-32.912 70.17473 13.403092
-33.49735 70.69313 15.243842
-33.3904 70.37345 16.387897
-32.94199 70.40006 17.160324
-33.221798 71.38215 15.008901
-33.32009 71.26711 15.403452
-33.191895 71.171196 16.418959
-32.82995 71.19874 17.080046
-32.902245 71.99023 16.329153
-32.63817 73.99229 10.857043
-32.79294 74.1583 11.455395
-32.73325 74.0668 12.188602
-32.59268 72.97265 16.371521
-32.90103 74.99158 10.694101
-33.121693 74.64305 11.634859
-32.995983 74.688805 12.265364
-32.824608 75.46484 10.33141
-33.380222 75.75103 10.87557
-33.499847 75.53759 11.692207
-33.31883 75.391884 12.407792
-32.89635 75.74286 13.197004
-32.817623 76.53309 10.276726
-33.369717 76.395515 10.786451
-33.117813 76.588844 13.335741
-32.709793 76.52239 14.2996645
-33.061504 77.17242 10.827044
-33.339657 77.17416 11.455819
-33.33402 77.319855 12.216891
-32.950855 77.35618 13.458029
-32.860672 77.237755 14.00895
-32.854366 78.01345 12.006167
-32.832382 77.90385 12.218276
-31.751562 63.03844 7.561711
-31.76813 62.9887 8.136672
-31.671938 63.08298 8.863451
-31.717665 63.750664 6.8853326
-31.94451 63.523838 7.5776258
-32.052513 63.63533 8.307843
-31.820845 63.659954 8.973429
-31.765701 64.21493 7.0137997
-32.052525 64.425415 7.6558156
-32.06109 64.551704 8.38286
-31.923225 65.01868 7.8628817
-31.877604 65.10079 8.32218
-31.659763 65.131004 8.950579
-31.971268 66.09969 13.106323
-32.392345 66.131966 13.929778
-32.14164 65.97932 14.491319
-31.811314 66.27214 15.504004
-32.14734 66.49136 12.788968
-32.426674 66.37916 13.660544
-32.50319 66.412224 14.512986
-32.38065 66.73397 15.237502
-32.247227 67.249985 16.11823
-32.5631 67.73857 12.650616
-32.383747 67.7838 16.459328
-32.185562 68.02289 16.819387
-32.055233 68.561745 11.950358
-32.53494 68.91437 12.31918
-32.383842 68.64486 16.999186
-32.217327 69.429 11.955822
-32.531433 69.40305 12.340489
-32.572327 69.49682 17.320578
-32.267136 69.94067 17.610022
-32.125282 69.92996 12.090024
-32.514153 70.23412 12.702558
-32.643497 70.70774 17.366858
-32.18056 70.46338 17.669018
-31.960766 71.2243 13.034677
-32.31734 71.5816 17.266003
-31.700836 72.75681 13.07273
-32.3166 72.21633 14.3876295
-32.23367 72.073814 17.137045
-32.104557 74.150536 10.19373
-32.230034 73.8765 10.605832
-32.33734 73.602455 11.808604
-32.359886 73.487404 14.674259
-32.481773 73.35748 15.3438835
-32.423313 72.87813 16.375082
-32.2712 73.01029 16.783527
-32.359364 74.6779 10.122455
-32.260937 74.78575 13.542841
-31.934391 74.128456 16.404236
-32.322884 75.61758 9.9749775
-31.83022 75.98961 16.205757
-32.340206 76.52442 10.000566
-32.37342 76.29677 14.55904
-32.14693 76.136055 15.559141
-31.901093 76.57738 16.503065
-32.23016 77.10947 10.15136
-32.368786 77.44982 10.470053
-32.532013 77.1322 14.293085
-31.892994 77.247475 15.942715
-31.744919 77.52798 18.536188
-32.34948 77.74636 10.841491
-32.41165 78.30618 11.799924
-32.477592 78.481476 12.41841
-32.411407 78.54709 13.189441
-31.622238 78.335915 16.010387
-31.817888 78.40047 16.826063
-32.01569 78.336655 17.523138
-31.952642 78.49271 18.508528
-31.812122 78.73357 19.350573
-31.680523 79.0837 20.013584
-32.115356 78.71381 12.350216
-32.080505 78.76088 13.24815
-31.862658 79.2331 17.725815
-32.045437 79.6985 18.731401
-32.05819 79.6572 19.385756
-31.841974 79.66627 20.117188
-31.764002 80.62105 17.98859
-31.987717 80.18923 18.421913
-32.095383 80.415146 19.355097
-31.82952 80.420715 20.350159
-31.641226 80.98372 18.03325
-31.75172 81.02727 18.609243
-31.817818 81.39363 19.421497
-31.693037 81.15332 20.77198
-31.60379 82.00126 19.702007
-31.535194 82.23115 21.688847
-31.55158 82.63929 22.358652
-31.540684 83.00409 22.735342
-30.916569 62.441395 8.36348
-31.24646 63.001827 6.9121747
-31.159592 62.612038 7.5961437
-31.39028 62.741814 8.493104
-31.11442 62.84816 9.151616
-30.981804 63.57512 6.4132524
-31.420929 63.49489 6.703092
-31.470455 63.57979 9.40632
-30.996344 64.00032 9.739479
-30.910688 64.311485 6.390806
-31.468351 64.31909 6.798356
-31.54975 64.269 9.36746
-31.207933 65.44158 13.985065
-31.021267 65.282814 14.374912
-31.121414 65.144936 6.9568315
-31.475523 65.36813 7.721798
-31.4511 65.60642 13.75209
-31.633034 65.60513 14.480008
-31.495964 65.835266 15.123476
-30.775566 65.69293 7.3057766
-31.02236 65.89997 8.750618
-31.493683 66.732056 12.125229
-31.55859 66.72345 15.958919
-31.402102 67.56907 16.643965
-31.246883 68.61813 17.137522
-31.49873 69.42636 11.578951
-31.362116 69.29929 17.442162
-31.847042 69.794136 17.626295
-31.454802 70.17775 11.805657
-31.722937 70.21406 17.726753
-31.43795 74.010864 10.141029
-31.515894 73.646774 10.5620775
-30.97719 73.061 17.684553
-31.608515 74.37346 9.954505
-31.376513 75.60471 9.843636
-31.457857 76.42138 9.833112
-31.508867 76.44062 17.538366
-31.358923 76.64518 18.155281
-31.531412 77.27601 10.133445
-31.415628 77.38083 19.064938
-31.45818 78.00824 10.7693815
-31.590479 78.43273 11.497979
-31.17389 78.64027 15.209614
-31.592493 78.657745 19.668077
-31.17112 78.76129 20.275394
-31.249151 78.711525 11.821984
-31.521164 79.01585 12.686978
-31.461283 79.04108 13.205174
-31.69405 78.77626 13.962457
-31.431005 79.285614 17.070765
-31.42941 79.46956 17.264662
-31.287687 79.38591 20.773369
-31.22852 79.59149 21.314169
-31.480724 80.037155 17.42761
-31.4145 80.18086 21.326927
-31.158463 80.653755 22.220415
-31.28648 81.21898 17.866493
-31.55427 81.60892 19.283997
-31.412035 81.915 22.733015
-30.901077 81.408226 23.013308
-31.15379 82.019615 18.601875
-31.403582 82.2504 19.410145
-31.470448 82.31946 20.686108
-31.469837 82.80095 22.74081
-31.284636 82.645454 23.237518
-30.878378 82.6432 23.66839
-30.944023 82.92897 19.712526
-31.260029 83.454025 21.670628
-31.416016 83.201385 22.517355
-31.071941 83.341736 23.241095
-30.787666 83.21347 23.70015
-30.90259 83.985344 21.614597
-30.834862 84.1343 22.335705
-30.848154 83.850006 23.14379
-30.434286 62.405144 7.793363
-30.589865 62.40029 8.497149
-30.452524 62.46898 8.897125
-30.65923 63.21341 6.422137
-30.644909 62.82907 6.8524404
-30.688515 62.499104 7.4181614
-30.588875 62.705994 9.265779
-30.649855 63.684242 6.324534
-30.347658 63.775978 10.114821
-30.326504 64.68784 6.260656
-30.597666 64.795135 6.511718
-30.117989 64.52948 10.228367
-29.961481 64.950485 14.078366
-30.215096 65.08817 15.222205
-30.316065 64.91245 6.3227253
-30.320023 65.38602 6.5549736
-30.15205 65.15187 10.461113
-30.739262 65.60823 15.11512
-30.32197 65.93488 15.841078
-30.224886 65.92487 6.9341035
-29.924973 66.53914 8.032316
-30.411182 66.2288 8.220147
-30.111847 66.45325 9.7810755
-30.191853 66.578865 12.116651
-30.404722 67.89329 11.872734
-30.629242 67.728584 16.57421
-31.088245 67.996185 16.795452
-30.797962 68.26962 16.764011
-30.665644 69.65701 11.821605
-30.695541 70.2932 11.973776
-30.429472 70.2003 17.38791
-29.685099 71.750305 21.7592
-29.766705 71.934204 22.31468
-29.754683 72.28799 21.222443
-29.895561 72.52285 21.704304
-29.825802 72.3628 22.38411
-29.665981 72.45369 22.99418
-30.78819 74.08353 10.272091
-30.450306 73.94808 10.662143
-30.640528 73.4455 17.608675
-29.78264 73.12915 21.765112
-29.71943 73.12802 22.510672
-30.731049 74.561386 10.153996
-30.337376 74.42503 10.420168
-30.797277 75.535995 9.996156
-30.343235 75.69657 17.957405
-29.720272 76.140114 23.67888
-30.994205 76.112755 9.925737
-30.340002 76.406395 18.366005
-29.906153 76.61503 23.55392
-29.688612 76.65938 24.253714
-30.75614 76.99859 10.137537
-30.656895 77.55019 10.570774
-30.5054 77.98663 20.188936
-29.882305 77.26481 23.407314
-29.711588 77.31801 24.151154
-30.319149 77.83789 10.712834
-30.8681 78.204346 11.352803
-29.8363 78.193085 23.208961
-29.6039 78.07754 23.912268
-30.278267 79.40107 13.091717
-30.709997 79.3977 13.973578
-30.030579 79.72264 23.092508
-30.047897 79.73229 13.75126
-30.295649 79.67055 14.191543
-30.636192 79.81669 16.589296
-30.084156 80.80887 23.396057
-30.589283 81.563614 17.572159
-30.508488 81.31112 23.471977
-30.203302 81.723045 23.821314
-30.488457 81.90111 17.899193
-30.529083 82.442474 18.689041
-30.377195 82.546646 23.842888
-30.298386 82.80524 19.00037
-30.378508 83.19795 19.696379
-30.644632 83.48838 20.249832
-30.709774 83.67174 23.448252
-30.285116 83.50698 23.773308
-30.156126 84.04143 20.88066
-30.422384 84.265076 21.47642
-30.331308 84.42663 22.492922
-30.278923 84.12511 23.29583
-30.16754 83.92775 23.68716
-30.228664 84.55115 22.008488
-29.970963 84.591675 22.443142
-29.578297 62.42269 7.9997673
-29.945951 62.4069 8.478515
-29.764301 62.867455 6.893726
-29.589611 62.56429 7.7330647
-29.816862 62.752743 9.295007
-29.449968 63.751724 6.302523
-29.857578 63.26824 6.493313
-29.05031 63.907166 10.743968
-29.176025 64.31242 14.261933
-29.06388 64.2477 14.977718
-29.508282 64.405495 6.173462
-29.469988 64.96538 13.097715
-29.021961 64.36481 13.374355
-28.96712 64.585655 15.513892
-29.026863 65.15586 16.039387
-29.592405 65.352516 6.271608
-29.385735 65.60651 16.075974
-29.349424 66.21051 6.811021
-29.414131 66.263695 16.240723
-29.72329 66.586716 7.89666
-29.472847 66.92153 8.490537
-29.04419 67.31665 9.868543
-28.941076 67.21779 10.405763
-30.04011 67.35008 12.300981
-29.871181 69.538734 12.665479
-29.69243 69.68112 16.891985
[...]
POINT_DATA 4733
SCALARS features_00 float 1
LOOKUP_TABLE default
0.5064021 0.49043524 0.64726055 0.6821986 0.65440917 0.6121605 0.6609391 0.61459386 0.5059741 0.4890869 0.48867315 0.5140773 0.49351496 0.4852565 0.49812788 0.5261814 0.4552323 0.46849483 0.5017495 0.5366356 0.5627544 0.44361413 0.46371174 0.51351875 0.54619724 0.5691687 0.419787 0.4080515 0.48931247 0.5394117 0.5620533 0.4173624 0.45952755 0.48931465 0.5059017 0.40113333 0.6987463 0.62259024 0.50214314 0.32010078 0.71395314 0.6219146 0.5513462 0.7475358 0.69630694 0.6352031 0.5614549 0.44711038 0.7488609 0.70716 0.48378658 0.27427024 0.6986905 0.6652404 0.6293851 0.53356856 0.3945061 0.60906565 0.6033546 0.9535973 0.92322403 0.86955565 0.8898327 0.9696579 0.9569105 0.8896862 0.860651 0.91946673 0.93385136 0.8472053 0.8518343 0.8489485 0.49992344 0.4806754 0.46395364 0.43495107 0.5438314 0.49414796 0.48078042 0.47454274 0.51262915 0.51941645 0.5435982 0.5502939 0.4943821 0.46691656 0.5647629 0.4853991 0.46968585 0.5749576 0.5721634 0.50038564 0.44169044 0.5549569 0.5585618 0.368745 0.45484477 0.012267545 0.26037994 0.3912707 0.7495798 0.73068583 0.51865625 0.16963366 0.25730407 0.327595 0.32955295 0.761915 0.27539772 0.19971299 0.77313775 -0.0013337284 0.7608174 0.19062321 0.0095307045 0.1868874 0.7295524 0.7040951 0.29033965 0.14941387 0.39993224 0.668413 0.58239037 0.5347622 0.483839 0.17596488 0.2253815 0.31192142 0.40854526 0.36298853 0.33482596 0.5009894 0.43097246 0.3482346 0.42643344 0.4102879 0.3576715 0.4126897 0.42289203 0.45958972 0.40910906 0.424663 0.44922173 0.47323108 0.4482169 0.48793614 0.567443 0.6668376 0.7322585 0.8105721 0.90799874 0.88788867 0.8617333 0.80850786 0.80764914 0.874352 0.80361104 0.6988305 0.74369407 0.80683666 0.82332975 0.4110504 0.40032294 0.72514856 0.75618285 0.4323262 0.4425192 0.42236048 0.65899897 0.61158794 0.6584937 0.44012147 0.48123384 0.4779126 0.56853235 0.48914367 0.5439344 0.6017391 0.5289298 0.68498373 0.6542436 0.38097447 0.713511 0.7004558 0.6906154 0.35399982 0.33653072 0.6681761 0.3278301 0.6210356 0.55624366 0.1839225 0.3281662 0.27805603 0.47432774 0.4040647 0.36211994 0.33687586 0.29269353 0.32310423 0.30224228 0.27474123 0.35904768 0.3452555 0.37722844 0.42502695 0.4752848 0.5953429 0.5342006 0.46509147 0.4890381 0.5354087 0.7117155 0.70514077 0.71692955 0.50296277 0.7351459 0.75259525 0.7847885 0.7747405 0.74556863 0.81684905 0.8247869 0.77345645 0.7704021 0.74701357 0.8102855 0.8548142 0.8392786 0.7581192 0.7652375 0.59983987 0.67949826 0.69703954 0.47016832 0.3039466 0.3934496 0.6688503 0.64644384 0.46217462 0.3940223 0.35677668 0.61359406 0.46555382 0.52622837 0.420778 0.6208293 0.54909974 0.30357563 0.44243866 0.36981106 0.5662507 0.55635566 0.3459432 0.6141267 0.6288316 0.63863206 0.65077937 0.6490576 0.64206964 0.59723675 0.5025734 0.27489305 0.6402959 0.6482094 0.60313654 0.53351253 0.61670625 0.06981229 0.55699825 0.6335799 0.16810119 0.56359404 0.5668993 0.5905733 0.5720894 0.20198107 0.54572237 0.5570857 0.5224318 0.5278089 0.4050954 0.49273857 0.20861621 0.21735752 0.21142009 0.12919529 0.15018223 0.28266793 0.4183804 0.41312385 0.52576715 0.60534674 0.4239914 0.4484782 0.72023726 0.43784595 0.47108388 0.52641475 0.81838024 0.80813515 0.59617865 0.70277107 0.8109996 0.84199166 0.8351619 0.7643105 0.79928267 0.6443229 0.6821225 0.74765193 0.65958565 0.6555531 0.66551375 0.7362608 0.18570589 0.27360696 0.32904565 0.6390467 0.20251729 0.19446442 0.40203366 0.37764788 0.6150094 0.33885017 0.5745156 0.24372655 0.4608792 0.3325721 0.23403633 0.16410932 0.45610338 0.30373228 0.15987831 0.38112473 0.5616623 0.55902135 0.5539407 -0.14880618 0.5822751 0.59151256 0.604818 0.6178181 0.6222019 0.17424086 0.62330675 0.61317146 0.55045897 0.37298912 0.23015937 0.44146594 0.49538496 0.33143076 -0.22452986 0.36613005 0.38481036 -0.072152875 -0.07971274 0.41399503 0.5425695 0.52539015 0.45272544 0.14179143 0.07572001 0.38025665 0.5658676 0.5514486 0.39371014 0.55532455 0.54659736 0.47797063 0.2537856 0.10703495 0.07829727 0.06279923 0.051533446 0.12288975 0.24724127 0.5205306 0.32201102 0.7298871 0.37437403 0.4252302 0.44340467 0.7908504 0.5898886 0.65884185 0.7571813 0.84001577 0.8313178 0.73974246 0.80259645 0.8246952 0.587168 0.47791743 0.48572657 0.64071286 0.6208396 0.16907918 0.22446859 0.21484536 0.6033893 -0.17145604 0.5763538 0.15372054 0.5697506 0.5381088 0.1848649 0.32380542 0.27526882 0.1794658 0.13216332 0.21442026 0.16366212 0.1110568 -0.25878653 0.13683787 -0.26784444 -0.5351734 0.46666953 0.463624 0.47244442 -0.100648776 -0.047555365 0.38934472 0.49643624 0.4973364 0.5103872 -0.03870647 -0.03885428 0.5362189 0.58991367 -0.12304504 0.49402177 0.5083878 0.43825507 0.3903337 0.39273083 -0.121979356 0.1782814 0.34616992 0.37296504 0.5080111 0.49610972 0.13874954 0.34740454 0.45054823 0.14240855 0.16506593 0.23733741 0.06790946 -0.039903425 0.32536727 0.16937225 0.19481765 0.5444584 0.2581654 0.26842123 0.6087481 0.36192414 0.42430443 0.7489631 0.77051675 0.5414828 0.6321117 0.7924411 0.81250167 0.80820704 0.33604816 0.11686667 0.14877172 0.16746005 0.13636355 0.009431185 0.15229519 0.5315686 0.47280118 0.04129313 0.101545475 0.10938986 0.115734115 0.21421427 0.102645144 -0.0051129907 -0.09302293 -0.38015705 0.19787739 0.4088418 0.40169638 -0.033899523 -0.15000625 -0.024824921 -0.080080345 0.22979778 0.5130187 0.5414737 -0.021513212 0.49021953 0.20087884 0.33120164 0.24416699 0.2645301 0.35071397 0.3492521 0.16657831 0.2694205 0.26997152 0.26278317 0.23593521 0.15430678 0.2793779 0.22118989 0.17712508 0.2968088 0.2557619 0.19080232 0.5338909 0.06323545 0.6455531 0.22454728 0.40989855 0.48660517 0.7047838 0.6817709 0.70170915 0.44831657 0.528631 0.41006815 0.32012635 0.039402366 -0.0033528712 0.5068079 0.062171318 -0.079094395 -0.035748612 0.10541549 0.043897495 0.5103314 0.4156204 -0.14663243 0.017704323 0.12510204 0.18946952 0.13789941 0.3631961 -0.032609954 0.12731436 -0.000917688 0.19052203 -0.025286287 0.029365227 0.1911833 0.0943697 0.14881445 0.15963478 0.2591932 0.2803527 -0.05598404 -0.19000676 -0.13520354 0.08955248 0.092148185 0.35095057 0.2737686 0.11100885 0.29702282 0.2616469 0.08826353 0.18538664 0.06352913 0.07173534 0.25154486 0.1107299 0.23031479 0.28779364 0.22413169 0.24934042 0.23618847 0.18295495 0.294807 0.124509 0.32272696 0.31048048 -0.051768355 0.32493594 0.24664386 0.16160974 -0.013247449 0.5128848 -0.20375466 -0.16967326 0.38413295 0.5081018 0.3107135 0.35841066 0.32921803 0.5699656 0.52081466 0.44331193 0.2543858 0.2295801 0.1940228 0.21464817 0.57784927 0.15236765 0.053094856 0.07870727 0.053992365 0.14986102 0.20601158 0.229806 0.2525199 0.5276699 -0.015558012 0.1714237 0.1924558 0.26654172 0.27616957 0.54348856 0.53661263 0.22768524 0.27452165 0.29108304 0.25270063 0.5466833 0.5082619 0.27916622 0.43160522 0.21644859 0.23210639 0.25832736 0.31288916 0.4878897 0.26669243 0.04417722 0.1595124 0.17023918 0.27250895 0.3506687 0.4586447 0.55291444 0.561362 0.18527894 -0.17752153 0.034013256 0.0628623 0.4219584 0.50761366 0.53835166 0.17252307 0.123041056 0.39074805 0.110475704 -0.37275457 -0.03303819 0.046394136 -0.118380696 -0.14235297 -0.11159657 -0.13536273 0.030090213 -0.08870007 0.23876067 0.36157128 0.07814793 0.22126533 0.4191591 0.48719025 0.57088804 0.06443048 -0.009867489 0.44482207 0.5292629 0.02377955 -0.21331279 0.04650323 0.05072177 0.07892042 0.08193583 0.14270838 0.0724848 0.26742452 0.3069793 0.23828357 0.09437632 -0.029187601 -0.036435433 0.26219884 -0.026044592 0.007700896 -0.090592384 -0.13808331 -0.16829628 -0.11705739 0.54202676 0.53414947 0.53460544 0.4755519 0.42448956 0.28978556 0.46343642 0.41820884 0.3233577 0.20429349 0.13839121 0.14385581 0.5485002 0.4318925 0.37746572 0.083494395 0.19308722 0.15441307 0.16661191 0.20253314 0.22497365 0.5703508 0.59353393 0.39147326 0.15682283 0.22184692 0.23364505 0.55374265 0.5487428 0.26446712 0.21416411 0.5610263 0.19756074 0.5818768 0.21896154 0.06284905 0.07219033 0.55815995 0.49134028 0.2112175 0.4247123 0.53854024 0.5709155 0.36124635 0.39123276 0.5644056 0.3110872 -0.21005596 -0.055152938 -0.05547055 -0.04236415 0.5158409 0.47148204 0.2824089 0.23672996 -0.27468118 -0.3292596 0.42305186 0.19543132 0.14327222 0.03554409 -0.47892588 0.093230866 -0.15007538 -0.655607 -0.02926128 0.13569212 0.28312415 0.36624253 -0.019599885 0.49177486 0.5136643 0.6094179 0.054754358 0.62392646 0.6618253 0.053063132 0.37224132 0.535319 0.62040234 0.66281533 0.56961507 0.5795011 0.006428705 0.39540964 0.4720976 0.5272104 0.58928525 0.6507964 0.5716089 0.6024169 0.6089033 0.5763213 0.02003738 0.47320163 0.6169566 0.5988767 0.61376065 0.620255 0.5473746 0.036803916 -0.055249296 0.63334846 0.66629994 0.6384911 0.5908959 0.010810699 -0.010679092 0.699398 0.7290461 0.711151 0.65696067 0.07158364 0.28797925 0.7698281 0.77790445 0.7553874 0.6948167 0.13626975 0.43020517 0.8018073 0.7953611 0.7542347 0.3354624 0.4140759 0.4482005 0.14397477 0.028258987 0.1288313 0.1638892 0.3347166 0.46264064 -0.021148011 0.015732892 0.05903384 0.08015072 0.082281515 0.020036966 -0.0823407 0.15321377 0.16424757 0.5209911 0.5551176 0.5561167 0.49481153 0.50949645 0.54841745 0.4691368 0.30493397 0.146773 0.26343328 0.39479965 0.13602021 0.16139132 0.52834356 0.39496094 0.124986514 0.54699343 0.5681328 0.16392763 0.54376364 0.19783768 0.15254727 0.5735331 0.55868393 0.17851223 0.13496372 0.6070043 0.011939138 0.12579416 0.6145187 0.34809637 0.4602449 0.5510268 0.5113702 0.5202441 0.43385834 0.4419539 0.37073526 0.31128058 0.32428077 0.3379329 0.26132393 0.031851843 -0.016453788 0.043606028 -0.16356291 0.14072347 0.3393463 0.45312226 0.46755815 0.49830216 0.5672295 0.6435914 0.69575214 0.7658076 0.4621781 0.7141327 0.7725506 0.51559514 0.5236483 0.53481275 0.535006 0.022626001 0.68516976 0.75979227 0.5483994 0.5497048 0.48953414 0.03144034 -0.45979473 0.3207918 0.56165826 0.6727178 0.70013994 0.77590036 0.49804303 0.56014407 0.5279913 0.500978 -0.0051938817 0.6153933 0.56268775 0.49172738 -0.0066349003 0.28407156 0.66057146 0.11086863 0.39478195 0.7067697 0.75888485 0.17941962 0.4295091 0.79304004 0.83916163 0.8340339 0.7951972 0.36049128 0.42268008 0.46896833 0.48229742 0.36708868 0.47836494 0.46464503 0.3905077 0.06099121 -0.12117429 0.45068008 0.4149471 0.3648638 0.034486134 0.08357305 0.43911773 0.2976785 0.013159569 0.04087524 0.23913404 0.20987254 0.14499103 0.338126 0.4949534 0.6027878 0.6268937 0.22369698 0.2656011 0.2899614 0.27687746 0.23480773 0.49184015 0.58678675 0.6312641 0.6444176 0.53255546 0.5534592 0.52487445 0.34505174 0.35499907 0.47431844 0.3167227 0.31850904 0.2661016 0.3335302 0.2642426 0.1924749 0.47802162 0.38207686 0.17924564 0.102813266 0.10313816 0.50090456 0.47273427 -0.0020769776 0.5373018 0.50925535 0.13981578 0.08931848 0.5876708 0.56256336 0.08800486 0.61014533 0.24107555 0.6219199 0.61051714 0.31952697 0.4679024 0.5655567 0.48525596 0.45377767 0.36557895 0.33719653 0.18653612 0.27562466 0.04776153 0.12989645 0.35570535 0.49555507 0.6134155 0.43666595 0.45637107 0.44814318 0.80109775 0.4097284 0.41461354 0.38372523 0.8874527 0.3999797 0.4532608 0.070445895 0.88450646 0.36451387 0.45173728 0.4697111 0.51734614 0.6087153 0.78723824 0.42797595 0.12608272 -0.558629 0.6646918 0.695747 0.765378 0.4489082 0.46738935 0.118301824 0.23848945 0.5729053 0.075709626 0.6479026 0.3706394 0.41302174 0.6913067 0.735251 0.80275464 0.80543506 0.39052474 0.8471799 0.89487994 0.4432252 0.31074175 0.45287436 0.2668821 0.27151865 0.42289877 0.3549497 0.019181766 0.5177591 0.3157667 0.24988273 0.22049198 0.033769444 0.011635505 0.63298106 0.2448405 0.25917166 0.2652963 0.2336327 0.16362643 0.26983994 0.304788 0.30502984 0.3065393 0.2474201 0.54053664 0.58541 0.63193846 0.6402406 0.31971973 0.31017816 0.31211948 0.60407746 0.6237563 0.33865768 0.35737848 0.4658302 0.45287058 0.50569344 0.44034332 0.27330768 0.35460776 0.3480909 0.29543516 0.38092887 0.43325678 0.21917611 0.18295494 0.21294071 0.33497488 0.09438893 0.13387804 -0.049101707 0.06847553 0.39395988 0.30282527 0.10124138 -0.07779853 0.4831366 0.35809684 0.23081619 0.15241227 0.22711706 0.5619728 0.4722527 0.07262403 0.15780133 0.6125703 -0.13771959 0.01889497 -0.006226212 0.11897245 0.6175446 0.002901636 0.28424686 0.56934625 0.54426 0.44418848 0.43623346 0.36105916 -0.16827436 -0.09149069 0.5796259 0.59537435 0.08536547 0.08291643 0.2391415 0.44708785 0.52365535 0.5696969 0.5741234 0.5628619 0.02959527 -0.01858583 0.66530436 0.5095537 0.4848545 0.37966856 -0.041555077 0.71849036 0.82767653 0.2965524 0.33059698 0.09091901 0.05062384 0.90978354 0.2478195 0.3383898 0.16819951 0.9354558 0.28480053 -0.46706152 0.4336434 0.591684 0.31194228 0.23805846 -0.49865896 -0.36653 0.8493632 0.34914535 0.44724506 0.19527408 0.41662917 0.31281704 0.58448505 0.5499381 0.5269901 0.49460977 0.17879224 0.66986716 0.6657815 0.6465422 0.23831035 0.28859362 0.35795003 0.22140253 0.37167847 0.3673067 0.55126625 0.23289087 0.26622534 0.27069575 0.21676692 0.4636435 0.53263235 0.6127906 0.27644438 0.28473663 0.27187324 0.33216265 0.34507555 0.5683671 0.608237 0.35678732 0.34737542 0.37055212 0.3779504 0.36894685 0.3607752 0.26387572 0.17349552 0.30810666 0.3354991 0.30955082 0.43541092 0.44980532 0.11731562 0.08850308 0.38512117 0.08308651 0.052592978 0.12566535 0.28600058 0.030815989 0.12240361 0.06770269 0.079717495 0.10159646 0.20506465 0.2191521 0.31486318 0.18373199 0.20852937 0.22733796 0.4800968 0.38426217 0.14267172 0.054672666 0.21212484 0.27425462 0.5951245 0.5145224 0.33357567 0.22444014 0.30889606 0.35757396 0.27718145 0.32635233 0.38375768 0.42150426 0.25603786 0.114033066 0.4164849 0.12489683 0.12040037 0.047589194 0.5428641 0.5163038 0.24293534 -0.16760884 0.49129045 0.5441168 0.57900834 0.5787277 0.052090943 0.46950606 0.34863877 0.066291325 0.54996085 0.41763058 0.3398233 -0.008461937 0.6099148 0.7213197 0.29814404 0.20894396 0.10072157 0.06673079 0.86335516 0.23287815 0.25856006 0.26734862 0.88383305 0.9147928 0.1932527 0.19753182 0.18237522 0.59323156 0.84650767 0.8944683 0.91958994 0.25743437 0.19016603 -0.6286778 -0.24861602 0.28473592 0.27081522 0.17950676 -0.25689402 0.0087118745 0.13077158 0.52162874 0.34595206 0.122027524 -0.36636272 -0.07066786 0.32713166 0.64452887 0.5288161 0.5155482 0.5169814 0.425844 0.043900058 0.20984235 0.2515229 0.40781838 0.62544477 0.6795684 0.81540596 0.6288733 0.62896854 0.36460346 0.51187307 0.6161944 0.82905126 0.8804164 0.87150943 0.71954876 0.8606244 0.8993329 0.8886857 0.03738139 0.7166989 0.3078481 0.28139788 0.05421506 0.40438777 0.37603438 0.19999315 0.06599271 -0.049848475 0.5217553 0.51945084 0.25777492 0.29406625 0.31018415 0.22354548 0.025129672 0.43554008 0.5307422 0.30619764 0.34487978 0.34176147 0.3791059 0.3572771 0.3522279 0.32053676 0.46763432 0.4282605 0.44200003 0.3945675 0.42716387 0.39393327 0.40403658 0.38362688 0.0995079 0.36336786 0.34366277 0.4670664 0.46063638 0.18839073 0.16163194 0.16655824 0.40728307 0.4356978 0.097927354 0.1897996 0.2247126 0.21039678 0.28739753 0.19133118 0.22646758 0.20658179 0.2013 0.13930824 0.15445797 0.22639549 0.24948503 0.12482558 0.2835304 0.3154553 0.14971459 0.056668825 0.31565794 0.3592195 0.037112057 0.3948452 0.4112649 0.066966236 0.013599448 0.38855144 0.349321 0.07754341 0.0016745962 0.10843996 0.46974605 0.44259655 0.088788845 0.028714916 -0.48610005 -0.08089964 0.41354632 0.4342382 0.0047769994 -0.2813244 -0.3937146 -0.13317752 0.3913158 0.41372824 0.16597445 0.06362248 0.06553256 -0.18175879 0.33041906 0.1624962 0.054385297 0.39074725 0.26997614 0.27916673 0.1339483 0.12683085 0.66847926 0.2571177 0.834047 0.16601491 0.14995408 0.39858556 0.15897657 0.15377732 0.12744434 0.085914604 0.47323787 0.17981577 -0.10335518 -0.111134805 0.63075525 0.22504207 0.2588182 0.11679857 0.69992185 0.7191242 0.47392327 0.5409955 0.45516872 0.78056383 0.4661857 0.84082294 -0.014159553 -0.034153044 0.5006089 0.66341716 0.8830291 0.86454093 0.15123817 0.7984898 0.8659508 0.8694372 -0.04390721 -0.033294313 0.2778671 0.29059613 0.015016548 0.09737776 -0.008840956 0.29557216 0.35692817 0.31067917 0.21106894 0.38300565 0.059711456 0.026922751 0.25318193 0.31666124 0.31163448 0.34515515 0.37603602 0.30839562 0.3394099 0.26964954 0.35545254 0.37508526 0.6293995 0.58193916 0.5792029 0.4936483 0.44378573 0.5435473 0.41373897 0.3654318 0.32461524 0.44758555 0.10261236 0.23654936 0.29041153 0.30303013 0.42153874 0.44294596 0.2528286 0.2622478 0.3039382 0.3232586 0.25549716 0.13058592 0.12289487 0.13751313 0.15536131 0.15523897 0.2748041 0.29129082 0.13437144 0.34661207 0.13227014 0.3800661 0.10378797 0.36060303 0.46480453 0.51908493 0.19098601 0.2580762 -0.09715021 0.34737128 0.3459102 0.22786355 -0.26082662 -0.19699004 -0.29049608 0.05871714 0.35965753 0.18760705 0.080216065 0.103463456 0.10283205 -0.15983617 -0.1980364 -0.11509606 0.21968448 0.30926946 0.1453803 0.12934375 -0.17243959 -0.3651265 -0.12835623 -0.21784794 0.1260449 0.25148106 0.10967073 0.15652572 -0.024831321 -0.05930269 -0.1623254 -0.12901822 -0.19432116 -0.2867756 0.09871163 0.23652105 0.03079518 0.07898646 0.09777291 -0.2703366 -0.36703628 -0.47283846 0.11801784 0.20819034 0.09907825 -0.28508854 0.10402533 0.21180336 0.07532104 0.0954781 -0.307286 0.12111124 0.3005864 0.39057502 0.26512587 0.21181038 0.10059771 0.6177932 0.35411426 0.27731737 -0.06397872 0.7129384 -0.16748673 -0.04349877 -0.077708215 0.7128055 0.2976402 0.2502734 0.12982163 -0.091485605 0.73546195 0.7499521 0.81816024 0.7795646 -0.07787828 0.19935894 0.38547862 0.8002255 0.8324275 0.38381246 0.029149488 0.20692757 0.82331854 0.8205721 0.8406451 0.46662068 0.3956136 0.3037166 0.25404075 0.49148196 0.43275684 0.29977643 0.26914737 0.27113685 0.472413 0.41146687 0.2547109 0.10783934 0.043520335 0.2129 0.30658263 0.11635905 0.26114675 0.2079014 0.4038704 0.06573285 0.064887755 0.07316546 0.3208524 0.37365294 0.25349984 0.18847552 0.13463026 0.4420319 0.4327966 0.43974322 0.3798315 0.62257594 0.28317434 0.51776826 0.5376853 0.62008893 0.67475975 0.7223115 0.7023425 0.66614795 0.51934165 0.53073347 0.32795224 0.23135653 0.13731563 0.22599839 0.2516319 0.32508707 0.33443087 0.2182107 0.32181847 0.29932472 0.25435615 0.13668008 0.40983325 0.5815271 -0.050811358 0.176996 0.05264895 0.07275464 0.3001638 0.16032189 0.25136203 0.70289457 0.22952273 0.27044547 0.22324094 0.6694275 0.68490136 0.58811116 0.60096717 0.25048515 0.3082117 0.11767407 0.52141166 0.4720527 0.38108182 0.3002507 0.18262608 0.047418192 -0.14502084 -0.10924739 0.023826996 0.40058824 0.27790284 0.31981373 0.24474177 -0.40884244 0.35463238 0.4158847 0.13481174 0.15829535 -0.22103426 -0.36311847 0.38883877 0.10580337 0.12568104 -0.33185324 0.42797476 0.5133936 0.087508395 0.09958047 0.089125715 -0.16134469 0.42078912 0.00035129488 0.06418612 0.16886902 -0.12224908 -0.20529662 -0.5177878 0.21963699 0.08362067 0.012111098 -0.0112513155 0.069328055 -0.34247616 -0.45013815 0.20846356 0.11083414 -0.107122995 0.036368333 0.4854315 0.432599 0.06068509 0.36786526 0.5000181 0.4320144 0.6514275 0.51771355 0.41849017 -0.14522281 -0.07577062 -0.045159295 0.6921939 0.73770845 0.42347234 0.31985682 -0.2218815 -0.09444977 0.7434517 0.7576004 0.32201293 0.1550336 0.11897162 -0.09339443 -0.13239445 0.76163304 0.75851893 -0.31578314 0.7754482 0.10349761 0.62552905 0.7222685 0.78213775 0.32297656 0.26407072 0.70296097 0.7562641 0.35856992 0.4139501 0.2846383 0.45035377 -0.39744115 -0.52513695 0.2793172 0.26551268 0.450813 0.045176502 -0.1332128 0.06849305 0.106837474 0.23290849 0.24724752 0.31495467 0.13897318 0.14676774 0.16928002 0.16267851 0.38581514 0.6315184 0.2095138 0.17483035 0.3743329 0.4758538 0.740761 0.7597774 0.5028025 0.39113945 0.4799744 0.5391294 0.5701988 0.5578758 0.81735957 0.801061 0.7454732 0.6716097 0.5458227 0.6299579 0.7438859 0.7584486 0.71611106 0.6823214 0.512238 0.5643072 0.6710917 0.37238032 0.48304072 0.366145 0.2892751 0.31901455 0.34798652 0.30164707 0.2025855 0.2508113 0.60485756 0.34739622 0.15283637 0.23290056 0.3583625 0.4731081 0.6221243 0.62615067 0.21322553 0.25400048 0.27891088 0.30545002 0.478