# vtk DataFile Version 2.0
Really cool data
ASCII
DATASET POLYDATA
POINTS 1439 float
-25.708601 72.872795 8.455084
-25.834633 73.782646 7.7334766
-25.930668 73.52295 8.577444
-25.812328 73.34636 9.515033
-25.621843 73.287056 9.92401
-26.054178 74.631226 7.633264
-26.105465 74.32978 8.397975
-25.891054 74.570755 9.4427185
-25.699791 74.70379 9.86113
-25.85869 75.48134 7.050636
-26.00896 75.04155 7.4830394
-26.166664 75.0078 8.540006
-25.876125 75.52532 9.581473
-25.670399 75.60401 10.066201
-25.90648 75.89731 7.443855
-25.81324 76.12424 9.609774
-25.696064 76.245346 9.873034
-25.580593 77.421616 6.141307
-25.64886 77.53481 6.439794
-25.839243 78.21481 6.8751516
-26.084255 79.08627 7.3602185
-25.847216 78.60778 8.0869875
-25.780159 79.83541 5.8953476
-25.983839 79.85174 6.2718935
-26.156876 79.67937 7.368086
-26.021656 79.7005 8.023177
-25.750246 80.77812 5.560445
-26.204315 80.59391 6.556097
-26.326916 80.588905 7.4029
-26.084028 80.734184 8.138166
-25.78886 81.4256 5.9225516
-26.21735 81.34438 6.677262
-26.289885 81.41263 7.462596
-25.955387 81.3086 8.250394
-25.9516 82.02296 6.9096565
-26.010746 81.99313 7.4978023
-26.036612 81.90289 7.8596845
-25.779343 94.07213 10.551775
-25.673306 94.55934 9.740363
-25.784521 94.22898 10.268855
-25.67952 95.30042 10.041418
-25.692217 95.2775 10.509434
-25.621733 95.0593 11.037308
-24.800064 72.06081 7.7319117
-25.067337 72.18129 9.425344
-25.057953 72.28253 9.898581
-25.38916 72.33313 8.576246
-25.42358 72.55631 9.647317
-25.237247 72.73571 10.048719
-25.377956 73.38885 10.170129
-24.953379 75.02411 5.873796
-25.51568 74.597244 10.085047
-24.829039 75.89 5.249747
-25.320023 76.003006 5.6664834
-25.282673 75.34202 10.331848
-24.973494 75.48226 10.553166
-25.161839 76.91842 5.330967
-25.487215 76.775986 5.749766
-25.35237 76.146736 10.256668
-24.927883 77.12918 5.085224
-25.483273 77.30858 5.863333
-25.432087 77.89457 8.112641
-24.986929 76.80742 10.132324
-24.960104 80.08063 4.843945
-24.944206 79.322174 9.026168
-25.101282 80.51178 4.9362993
-25.518486 80.25616 8.733242
-25.06037 81.458565 5.0207973
-25.591198 81.57004 5.624845
-25.268467 81.842766 5.554607
-25.593288 82.26935 6.6565304
-25.385952 82.47214 7.285112
-25.420261 81.87604 8.463434
-24.59009 87.00371 8.929178
-24.637037 86.6312 13.535387
-24.615404 86.78754 14.0948305
-24.544388 87.3219 7.768439
-24.639467 87.4444 8.622269
-24.589375 87.22229 12.85237
-24.647097 87.3524 13.486314
-24.627861 87.21144 14.169344
-24.54625 87.958916 8.851308
-25.103657 92.91805 12.51292
-25.080183 93.96529 9.310299
-25.216953 93.62727 9.885427
-25.142317 93.356895 12.032659
-25.00543 93.284454 13.112202
-24.954487 94.79413 8.886026
-25.322063 95.277855 9.186635
-25.363695 95.32593 9.307248
-25.536522 95.5717 10.794994
-25.166544 95.24749 11.971391
-24.947206 96.09552 9.684508
-24.834423 96.47784 10.888862
-25.047297 96.116806 11.095024
-23.992228 72.1668 7.1515326
-24.697693 72.121994 7.677391
-24.162298 71.57654 8.409497
-24.204975 71.77487 9.399583
-24.504433 72.162865 9.94767
-24.791735 72.71396 10.350935
-24.620481 73.50058 10.595429
-24.443659 74.505165 5.7651105
-24.440676 74.35503 10.659613
-24.574633 75.82803 5.110583
-24.560371 75.28909 5.4545836
-24.328669 75.67256 10.654993
-24.356297 76.47364 4.9339
-24.711458 76.44389 10.455814
-24.143812 77.60003 4.8492227
-24.361359 77.27192 9.826004
-24.687872 78.83031 9.124209
-24.368351 79.88344 4.752551
-24.274612 80.65662 4.4551144
-24.463049 80.68958 4.553934
-24.694592 81.13904 8.728975
-23.84994 81.98743 4.792963
-24.501343 81.804825 8.415737
-24.554733 82.61348 6.946587
-23.835201 86.306046 11.834798
-23.8104 85.97903 12.366027
-24.324774 86.098595 13.734272
-24.170826 86.12511 14.276304
-23.822767 86.61824 6.59523
-24.332903 86.43476 7.547012
-24.503084 86.62744 8.774324
-23.727682 86.41491 11.514756
-24.326082 87.056526 12.265711
-24.47055 86.50233 14.137537
-23.811523 86.40186 15.7287
-23.742012 86.68402 16.16881
-23.82351 87.66766 6.115104
-24.12839 87.38205 6.589276
-24.512081 87.22952 7.6288342
-24.413494 87.390724 9.58229
-24.468266 87.117714 14.505186
-24.231625 87.18483 15.17905
-23.733099 87.34709 16.435884
-23.679726 88.796974 6.2317214
-23.980719 88.37658 6.651608
-24.268486 88.15393 7.1303167
-24.484533 87.81517 13.725645
-24.079885 87.95826 14.559824
-23.81113 88.272026 15.488776
-23.726273 88.03202 16.256435
-23.840185 88.85476 8.72646
-23.531826 89.14568 10.184505
-23.665945 89.50393 12.608783
-23.61395 89.631905 13.607377
-24.237387 90.92621 12.825933
-24.453596 92.05191 11.252498
-23.651346 92.423225 15.349808
-24.156317 94.97708 8.45389
-24.044516 94.31411 8.590387
-24.149996 94.49862 14.493675
-24.425575 95.60585 8.679394
-24.064285 95.25497 14.253508
-24.283138 96.09191 9.0077095
-24.000225 96.42921 9.497106
-24.709204 96.53733 10.2176895
-24.439302 96.231186 12.48492
-24.029839 95.93486 13.695511
-24.201878 96.67719 10.111287
-24.313353 96.671165 10.611076
-24.158554 96.74765 11.066504
-23.497126 73.1595 6.3793597
-23.61044 72.50965 10.318179
-23.549322 73.76881 5.841637
-23.25272 75.536 10.517
-23.994854 75.56393 10.618746
-23.973707 76.53209 4.9400525
-23.535202 77.97419 4.715288
-23.336557 78.41395 4.649113
-23.313889 78.86442 9.338193
-23.907394 79.77989 4.566826
-23.671955 80.2928 4.4211183
-23.222256 80.67232 8.9235735
-23.120216 81.2939 4.4250674
-23.25252 81.60802 4.497502
-23.230598 80.95815 8.5222025
-23.45566 82.44175 5.0214486
-23.866966 82.12844 7.837107
-23.271145 86.05977 9.949319
-23.031826 86.00214 11.506225
-23.706076 85.718605 14.00381
-23.577293 86.06001 15.35961
-23.134567 86.193596 16.345573
-23.551846 86.67195 5.9980364
-23.463356 86.6541 16.554344
-23.19468 86.761925 16.833746
-22.828016 87.32361 5.2236433
-23.106024 87.672455 5.433611
-23.195364 87.3594 17.035582
-23.190214 88.52088 16.709263
-23.151869 87.96184 17.121384
-23.43646 89.213326 6.184096
-23.479784 89.51183 7.495225
-22.870232 88.94882 16.701647
-22.575989 91.35794 5.6720223
-23.076693 91.424225 8.990986
-23.218718 91.54803 16.261024
-22.793633 91.55146 17.103647
-23.194754 92.43338 16.208105
-22.860186 92.67702 16.983627
-23.315475 95.66149 8.776582
-22.990978 95.432236 14.647043
-23.673065 96.0284 8.971724
-23.495361 96.53823 9.955905
-23.518858 96.34856 13.281222
-23.204464 96.102455 13.843207
-23.642794 96.60189 9.80774
-23.82988 96.74886 10.739582
-21.771227 69.09079 6.060522
-22.119072 69.10782 6.673255
-21.934776 68.74691 8.10541
-22.029293 69.711815 5.654642
-22.311153 69.57772 8.074299
-21.861542 69.6769 9.501454
-22.005194 70.75466 5.384618
-22.21708 70.58482 5.588674
-22.029633 71.60498 5.849668
-22.87377 72.438934 10.095432
-21.917894 73.900116 5.1804404
-22.80337 73.44288 5.6082935
-22.835833 74.49362 5.401588
-23.045263 75.51663 10.404307
-22.21698 77.01803 5.2743616
-22.620152 77.76546 5.046401
-22.574993 77.09754 9.485121
-22.319275 78.33827 9.1391
-22.372208 81.72095 4.431859
-22.482174 80.92866 8.376376
-22.349092 83.5135 4.2521596
-22.572176 85.7151 12.286451
-22.609493 85.61301 13.439152
-22.43679 85.81906 15.7988405
-22.54525 86.09153 16.384895
-22.727057 86.34904 16.724592
-22.596558 86.767456 17.012869
-22.681532 87.66115 17.272438
-22.31504 88.44464 17.167221
-21.729893 90.82835 3.4028463
-21.654156 91.50719 2.8673804
-22.01757 91.42521 3.8664386
-22.26062 91.37802 4.3163342
-22.418367 91.71228 17.462734
-22.158976 91.72125 17.65463
-21.679087 92.037384 2.998109
-21.64237 92.4027 3.5492861
-21.887789 92.51265 4.6363525
-22.26083 92.49586 17.534657
-22.03598 92.530655 17.648376
-21.81289 92.89948 4.784279
-22.033031 92.75484 7.167373
-22.611706 93.5649 16.43161
-22.27637 93.088326 17.268978
-23.044004 94.21456 8.726758
-22.890324 95.547676 9.03759
-22.366318 95.55688 9.498203
-22.970934 95.556915 14.475491
-23.138546 96.25906 9.566645
-22.934458 96.45317 10.550484
-22.697702 96.35574 13.317889
-22.433008 96.157486 13.766546
-20.898779 68.194405 6.7271824
-21.042936 67.84775 7.5804353
-21.160675 67.91043 8.415186
-20.976555 68.13715 9.064913
-21.291136 69.08457 5.7258115
-21.61325 68.46324 8.544354
-21.224478 68.8529 9.478196
-21.3853 69.902596 5.179317
-21.690004 69.474106 5.4638987
-21.284494 69.59877 10.1455765
-21.482046 70.460495 5.1475863
-21.126772 70.507996 10.399108
-20.947353 71.43006 10.567917
-21.137163 71.95261 10.69973
-21.397116 72.31117 5.4796314
-21.280733 73.25337 5.1611333
-21.718615 74.90711 5.087455
-21.611694 75.57036 9.947185
-21.188173 79.65764 4.7697344
-21.086672 80.54181 3.980845
-22.020521 80.69038 8.5515375
-21.151491 81.55354 3.811041
-21.994015 80.911224 8.422948
-21.150373 82.37801 3.8104534
-21.241508 83.68337 4.0647683
-21.77064 83.958206 8.961901
-21.465752 85.577774 4.6599145
-21.481354 85.88622 12.887289
-21.470066 85.82007 14.5434265
-21.933569 85.8356 15.332694
-21.811033 86.22401 16.223486
-21.75724 86.42794 4.8197637
-21.885014 86.42744 16.610659
-21.693295 86.9912 16.88289
-21.052475 89.29686 17.265888
-21.342215 89.7424 17.61106
-21.238914 90.75897 2.7643957
-21.26828 90.47236 17.880016
-20.944963 91.526924 2.1470726
-21.385492 91.62028 2.5574584
-21.289347 91.57269 17.857977
-21.290497 92.265656 2.6613693
-21.44579 92.50523 3.2665596
-21.569347 92.42617 17.780752
-21.007393 92.82036 2.9892936
-21.458796 92.83426 3.7920723
-21.480864 93.30703 4.914056
-21.376387 93.229 8.44669
-21.577127 93.425865 17.359224
-21.235023 93.66936 5.913463
-21.318094 93.9819 16.718212
-21.251863 93.65177 17.333555
-21.77078 94.636566 15.09701
-22.115023 95.87758 10.381336
-21.921743 96.13605 12.540945
-21.933865 96.14084 13.175006
-20.277475 67.29315 8.018885
-20.247784 67.322136 8.275967
-20.29049 67.99328 6.6772375
-20.520681 67.80169 9.128334
-20.955627 69.01369 5.711192
-20.73638 69.920616 5.0717273
-20.436546 69.72026 11.452924
-19.763556 69.44611 12.293274
-20.675838 70.71243 5.011792
-20.446016 70.81106 11.510899
-19.943037 70.37926 12.408749
-20.68631 72.53631 5.3164706
-20.832287 73.99265 4.9604573
-20.781729 73.033356 10.598674
-20.870451 74.20974 4.9590926
-20.524086 75.37163 9.753797
[...]
POINT_DATA 1439
SCALARS features_00 float 1
LOOKUP_TABLE default
0.62253016 0.50271726 0.5751073 0.58844346 0.5852875 0.45990497 0.5298095 0.5371497 0.5265887 0.4058888 0.44036466 0.5101869 0.4840842 0.5004938 0.36345136 0.4603508 0.47589055 0.35389316 0.32747117 0.37056178 0.4533928 0.43830475 0.5312477 0.5341228 0.53300977 0.5444027 0.61342865 0.6393517 0.65491796 0.6854911 0.65225077 0.6923244 0.7293792 0.75423616 0.73206025 0.76068664 0.7722968 0.6493052 0.7403252 0.6928363 0.76431537 0.74141395 0.68352866 0.6406458 0.6225649 0.6069224 0.648841 0.60771656 0.5960034 0.56935406 0.38142568 0.5245084 0.40895957 0.39394242 0.51048213 0.5146625 0.43583673 0.3927511 0.49834076 0.4363592 0.38946685 0.36888734 0.48778808 0.43470415 0.49244738 0.49759424 0.6244564 0.4994374 0.62295544 0.59337676 0.7175367 0.76153916 0.78461957 0.3769986 0.47956538 0.47691798 0.37640578 0.38040435 0.50270826 0.4438621 0.46002764 0.36915272 0.26969534 0.7334763 0.6361041 0.3826549 0.2806974 0.82978415 0.8308464 0.82447505 0.7380664 0.61874515 0.7825406 0.6919691 0.7027594 0.44071501 0.62995625 0.61338586 0.6209052 0.59665 0.56671077 0.5319111 0.31431043 0.52807045 0.38705257 0.36261627 0.52068675 0.39238352 0.49725476 0.36497313 0.40638545 0.3924991 0.3242737 0.35877046 0.38204378 0.63458055 0.34200776 0.6453309 0.7823405 0.47392428 0.5472348 0.5037307 0.5052346 0.346039 0.35008675 0.36487094 0.37125587 0.545038 0.48613155 0.6389593 0.66668683 0.36107272 0.36580968 0.3745367 0.34960228 0.48093742 0.53355074 0.65179265 0.36228234 0.37072742 0.3718999 0.3861486 0.40414822 0.51256377 0.60677207 0.32845685 0.15811826 0.010378137 0.071029745 0.01186027 0.26049745 0.34395683 0.8392248 0.8219 0.41854572 0.8341557 0.47035593 0.75131106 0.6669879 0.6959839 0.64335215 0.4944986 0.6584979 0.6581852 0.61688817 0.22783177 0.52504313 0.25661382 0.38225013 0.5107002 0.3546893 0.2955264 0.2497784 0.28825372 0.26036033 0.27500015 0.2406826 0.26709294 0.2790034 0.2787281 0.28948638 0.5728929 0.117123894 0.3470705 0.5718831 0.62788904 0.7026773 0.33279103 0.6989753 0.710577 0.2855124 0.32989877 0.69308126 0.5862094 0.6504644 0.33168727 0.33440396 0.50075805 0.27516174 -0.040210873 0.3535602 0.43689436 0.43215972 0.49124372 0.69159913 0.46501958 0.68871933 0.61934066 0.523569 0.49516606 0.6345861 0.60363764 0.5077735 0.5290726 0.48546594 0.5070604 0.45056862 0.32480472 0.45721895 0.45740962 0.29381126 0.41192025 0.12514192 0.14703779 0.21686451 0.31857985 0.1623703 0.1718572 0.081612565 0.092235856 0.22280076 0.20608783 0.13688326 0.503893 0.6093533 0.65617746 0.6811688 0.7010919 0.7058511 0.6691385 0.56046903 0.46885186 0.5323303 0.45605564 0.42676926 0.5075768 0.544166 0.5297626 0.49634492 0.44309363 0.56051445 0.588858 0.4601033 0.37541008 0.5503697 0.5842871 0.7016479 0.6327819 0.54032755 0.4694724 0.60615146 0.545788 0.50138307 0.47995389 0.5585013 0.56950915 0.47451788 0.39616525 0.52259696 0.44121486 0.34781393 0.52231646 0.52703995 0.22475477 0.48418242 0.089504935 0.020373523 0.0094605535 0.20034124 0.11279038 0.17807777 0.031826373 0.3210591 0.4189189 0.17177832 0.3674599 0.15805894 0.29639965 0.16450112 0.1458879 -0.035524983 0.4217049 0.49877155 0.5950968 0.62600046 -0.002307959 0.6415203 0.6431383 0.5237644 0.5083664 0.53811306 0.57340795 0.6305556 0.57936794 0.6338364 0.5890312 0.5295808 0.63454914 0.5876076 0.4934301 0.49229336 0.1750645 0.6593822 0.45337737 0.62048197 0.6656282 0.4560155 0.50645185 0.46271604 0.46357092 0.55233335 0.518828 0.5599581 0.39216498 0.5214313 0.5145081 0.17797877 0.2687494 0.44732195 0.105194405 0.33936188 0.19989896 0.11610773 0.060091794 0.12586716 0.033209547 0.10696059 0.004878111 0.44190928 0.14764692 0.17083259 0.45761853 0.45994878 0.45013267 0.16326797 0.004629912 0.34009838 0.3547638 0.41988155 0.55602837 0.012790632 0.50188375 0.040294327 0.4145254 0.63585013 0.6397551 0.63981366 0.68694174 0.63880146 0.6988926 0.64246285 0.6398163 0.63239574 0.3112362 0.6635618 0.68232495 0.5362669 0.47583735 0.47178516 0.60804045 0.6480005 0.3511957 0.36695418 0.4187367 0.4095624 0.5852249 0.08839472 0.53008246 0.5653763 0.2538716 0.15016831 0.10851855 0.16087055 0.24126579 0.21279311 0.27621475 0.3551895 0.49444845 0.49237168 0.36583486 0.41762388 0.46883884 0.4520743 0.4324184 0.50815773 0.6408371 0.60021377 0.6373658 0.38355297 0.50976336 0.6684694 0.6830307 0.6720381 0.6913589 0.6550547 0.5158848 0.7318361 0.7461799 0.7537715 0.72519094 0.14668876 0.130346 0.2181276 0.24571046 0.5203142 0.5447983 0.51601714 0.5514889 0.5275078 0.52364075 0.24185677 0.09374871 0.29138488 0.39415127 0.41333574 0.39585656 0.25809944 0.34967625 0.3525418 0.20883064 0.32404485 0.293665 0.502459 0.63862944 0.6619795 0.57654345 0.6879703 0.60255635 0.077339076 0.70457864 0.61594874 0.04826904 0.15773766 0.68744034 0.70306915 0.62621444 0.6253295 0.07587187 0.37361443 0.5163922 0.59569025 0.63921505 0.47001168 0.382023 0.5255265 0.569718 0.63243675 0.13129416 0.13402244 0.12878326 0.19779399 0.2583974 0.332219 0.39055705 0.4936434 0.45337301 0.60602593 0.6993645 0.51861274 0.49631172 0.7643229 0.7844816 0.774433 0.8304373 0.8337788 0.8389646 0.3447226 0.3443177 0.5697659 0.34151942 0.5724336 0.3896282 0.50581616 0.33877778 0.30971417 0.55401695 0.61124927 0.38936982 0.60874116 0.41375336 0.3969706 0.64387363 0.3646906 0.09503505 0.39380145 0.39581722 0.40273076 0.31129336 0.40370685 0.38153857 0.3749924 0.4945529 0.19349046 0.28687927 0.31995833 0.33668733 0.13393357 0.16668804 0.2663833 0.348876 0.5052279 0.62514067 0.013778016 0.06775154 0.45699975 0.59195 0.6560401 0.6883105 0.5164765 0.5294884 0.61701614 0.6880548 0.69632316 0.56214 0.018104263 0.2839353 0.6291224 0.5707898 0.4659056 0.39484555 0.40712488 0.3105603 0.3490023 0.4487759 0.58823335 0.45951533 0.45275968 0.14437553 0.14951542 0.14394484 0.14441873 0.15405712 0.21724272 0.29246655 0.28762436 0.13069406 0.1386575 0.12792067 0.6724324 0.0705667 0.7225256 0.4644075 0.5070218 0.4408426 0.6990179 0.40569222 0.48257285 0.7620765 0.7485508 0.826326 0.8186966 0.4096456 0.60820585 0.40427393 0.6556376 0.4034243 0.6043162 0.45033082 0.4510772 0.6122892 0.60027725 0.590046 0.6200242 0.6006413 0.6440393 0.32882318 0.5083312 0.471552 0.5482533 0.5352434 0.6356547 0.653438 0.46629637 0.38934904 0.73619044 0.4822231 0.79550654 0.71986145 0.10958101 0.1463649 0.39947322 0.13107459 0.1489413 0.17557152 0.13767897 0.07191149 0.10847515 0.2438089 0.17945558 0.14908285 0.29865107 0.15380585 0.10455443 0.12356214 0.27874368 0.72665197 0.40387115 0.5300455 0.41078582 0.31709167 0.69147176 0.6060364 0.66239095 0.712832 0.47786912 0.65432453 0.49691415 0.68073773 0.4734344 0.6671175 0.6731001 0.53417385 0.5586121 0.6171113 0.635018 0.6466139 0.48027843 0.40996188 0.40366128 0.53476286 0.6032506 0.5581925 0.6604649 0.2974656 0.69379145 0.23176646 0.6226496 0.2600598 0.59834903 0.56206524 0.2485016 0.73680085 0.6986146 0.5765531 0.4997676 0.77459204 0.7258956 0.47809306 0.1916332 0.84216285 0.8160299 0.10822002 0.14597355 0.21674317 0.8821523 0.8321659 0.2009402 0.23257455 0.7387371 0.5422205 0.16305956 0.1165307 0.079007305 0.12469098 0.12626117 0.11047188 0.30030012 0.08360098 0.37021023 0.31453818 0.45360786 0.61973405 0.5125793 0.5653828 0.60460263 0.6523403 0.55383044 0.5105769 0.54525757 0.733706 0.52032375 0.53766716 0.56179 0.6918144 0.6864721 0.5445619 0.6132183 0.6428758 0.6586852 0.67385024 0.6538452 0.6562857 0.5312021 0.5441641 0.5852159 0.52220404 0.6207775 0.47032636 0.70293367 0.66590106 0.338144 0.7076024 0.45174938 0.28372407 0.65678996 0.6386764 0.5022182 0.44568193 0.46549234 0.60116625 0.43282673 0.7404181 0.65980864 0.5729537 0.47456694 0.4045472 0.81816226 0.76867217 0.2598903 0.8679608 0.22527248 0.26125282 0.9050247 0.2425197 0.20857221 0.72973716 0.16039473 0.14076027 0.27083302 0.31882662 -0.105603784 0.6086414 0.14206071 0.15067127 0.32100266 0.561887 0.5320051 0.79430556 0.7929579 0.882388 0.31675655 0.5125991 0.49511972 0.5034851 0.5854 0.7856059 0.8854661 0.92378354 0.49661 0.57300246 0.7213186 0.8677844 0.8965919 0.5837009 0.6493752 0.55762494 0.56089854 0.6442129 0.68884957 0.6619354 0.6678601 0.614248 0.6270921 0.668237 0.6704024 0.64074826 0.6889427 0.61452174 0.7615112 0.60613513 0.6977024 0.70103633 0.5403659 0.57757366 0.6452489 0.6122686 0.5175024 0.5225556 0.73144543 0.663419 0.49699306 0.4196128 0.3278811 0.30745292 0.82013947 0.77352536 0.27187178 0.29251617 0.2839212 0.26326528 0.8819849 0.24678084 0.8977921 0.7305453 0.114501715 0.112138495 0.15696493 0.095794454 0.10774262 0.19388893 0.23348784 0.12786035 0.116211936 0.19925237 0.24637309 0.28746328 0.3043369 0.08615446 0.10259874 0.29729685 0.15134087 0.14483613 0.33745158 0.21334907 0.6369702 0.69645715 0.78294915 0.12977615 0.08982517 0.07313085 0.43548465 0.69250166 0.8005075 0.8699932 0.9090097 0.45889208 0.46657833 0.93224156 0.93127894 0.4434578 0.4758936 0.45246497 0.8350072 0.9051403 0.9158189 0.4679718 0.51848775 0.5460668 0.59952366 0.8048942 0.848954 0.6756887 0.72165394 0.7454196 0.73583716 0.75279474 0.6914997 0.6544802 0.6229991 0.582705 0.5806881 0.5868323 0.55320287 0.55568457 0.61742043 0.43403274 0.38737583 0.3646122 0.3684753 0.37824625 0.3521114 0.7664101 0.6987796 0.31486276 0.24471004 0.83532226 0.1561632 0.8202137 0.7308093 0.6907348 0.59131634 0.056472853 0.15965861 0.5126461 0.11682849 0.09556943 0.105271526 0.14928406 0.23928809 0.26750934 0.14128326 0.10291653 0.28232062 0.020098794 0.070512794 0.14036678 0.1444656 0.13031779 0.25651342 0.4985602 0.686453 0.75760067 0.026787914 0.01882894 0.81618327 0.84944165 0.91600496 0.8579123 0.8941246 0.48113307 0.5293727 0.5642121 0.7043448 0.80358434 0.4134648 0.44704452 0.4351704 0.38710806 0.71465576 0.6674013 0.6116115 0.35692304 0.7656077 0.13422239 0.09503967 0.74654365 0.080234826 0.13519593 0.15895316 0.18843397 0.70936483 0.6754166 0.56251836 0.36790192 0.45321578 0.06399279 0.09520273 0.1615163 0.3035857 0.06263226 0.28168905 0.5075741 0.56639767 0.63251257 0.681643 0.020280909 0.70466065 0.7758435 0.14093556 0.88537896 0.16500159 0.11717266 0.26020083 0.7933183 0.877954 0.4303941 0.45317286 0.4476086 0.4876033 0.6030502 0.7416677 0.44815576 0.4676304 0.4548026 0.43849325 0.7018515 0.6359527 0.76359975 0.7424414 0.73392785 0.63139766 0.7621807 0.7633873 0.7650026 0.35834128 0.24970993 0.24211401 0.718343 0.6602267 0.37212354 0.19921201 0.2852147 0.30203497 0.27326116 0.62300193 0.16653259 0.67205393 0.7032203 0.0694882 0.04432178 0.76620066 0.09508498 0.5560428 0.73377854 0.28967056 0.38295448 0.43630293 0.5456762 0.4787078 0.45473915 0.47895372 0.45874628 0.46567738 0.45122898 0.3213217 0.31785846 0.24849924 0.36126044 0.30674762 0.17991555 0.22880232 0.25350523 0.26279727 0.22354504 0.55071694 0.6435007 0.65869534 0.004100036 0.012732483 0.72736216 0.17923552 0.6301787 0.32757312 0.3413618 0.40808702 0.46093294 0.46379387 0.46242613 0.45388657 0.35562053 0.52328444 0.550069 0.5350503 0.46716186 0.43401265 0.4661004 0.44055498 0.42353082 0.37821022 0.29006606 0.19532683 0.36083058 0.20379654 0.18389837 0.084979855 0.28376722 0.50016165 0.5816518 0.5201517 0.6111669 0.5673333 0.41928563 0.31659323 0.3333991 0.3363907 0.41944432 0.47778463 0.5644697 0.56430167 0.5212035 0.45539498 0.45248148 0.51867974 0.55086315 0.31985968 0.29040408 0.35163742 0.44168687 0.52250636 0.5191915 0.23226313 0.16202658 0.19765046 0.43476582 0.39440835 0.41511768 0.44738877 0.4525655 0.3620822 0.5119121 0.5036159 0.088808775 0.20120785 0.40856192 0.25166968 0.53896147 0.57491386 0.32423604 0.31858063 0.30520377 0.5215332 0.32622933 0.29452085 0.28564045 0.1891935 0.19669223 0.43977407 0.47205776 0.47419775 0.47665608 0.017088093 0.09367992 0.30016595 0.39861462 0.36141944 0.2931053 0.2528926 0.42940235 0.14630918 0.22098784 0.40639704 0.061692372 0.4618605 0.27796483 0.46255428 0.09608095 -0.01826758 0.38917947 0.4140036 0.39407456 0.36143866 0.3970986 0.37492937 0.42284918 0.3417068 0.18161815 0.2634702 0.022268698 -0.009009048 0.3224142 -0.11637282 0.2920534 0.5604245 0.3495153 0.324192 0.39471337 0.45652825 0.33581743 0.3162574 0.3606006 0.41043925 0.28721762 0.23295599 0.35995987 0.14380103 0.12913592 0.1692678 0.21365139 -0.068609655 0.04190885 0.023885153 0.79287684 0.8343333 0.8237423 0.46756515 0.874243 0.83964294 0.6719595 0.5778636 0.67699856 0.74429834 0.4902382 0.6140132 0.1988878 0.47841483 0.4689391 0.20402727 0.10506976 0.12217705 -0.02980655 0.061113827 0.049022723 0.5606069 0.77580845 0.3669574 0.24204543 0.86944735 0.4907601 0.4328963 0.87583107 0.8833865 0.81607723 0.6743584 0.585499 0.49027812 0.8702589 0.82321405 0.7200949 0.6549635 0.6949332 0.5924379 0.64456046 0.7307142 0.7140888 0.5446311 0.65828955 0.34423748 0.40844786 0.21259424 0.27870798 0.059596293 -0.004578091 0.01024989 0.6880734 0.77759975 0.72263134 0.30752325 0.68665975 0.8466097 0.6834068 0.90988433 0.90960884 0.63447237 0.5934894 0.48779562 0.87722063 0.7829772 0.6812646 0.6872772 0.70971423 0.72315645 0.58949053 0.6369321 0.72648406 0.7079949 0.66859066 0.53233236 0.19124682 0.39088324 0.27882847 0.056012355 0.60154086 0.6796464 0.71045893 0.7593932 0.6213927 0.7195408 0.88325727 0.59042215 0.65154684 0.68079513 0.69177794 0.71431506 0.92185163 0.92490757 0.57967985 0.61595523 0.660699 0.68014324 0.9037682 0.83268166 0.67616796 0.6131201 0.7097954 0.71932364 0.6724907 0.70028436 0.70424294 0.68632 0.71262 0.15119982 0.20480764 0.2198264 -0.07752854 0.056935392 0.29489174 0.5531088 0.4506451 0.67036295 0.6033635 0.7608784 0.5910569 0.7200017 0.8438053 0.47756094 0.6963289 0.7070925 0.90100014 0.91444635 0.6548042 0.5686828 0.5433392 0.57325226 0.5618192 0.6011092 0.63178515 0.66130584 0.91005516 0.8638197 0.69485486 0.5612926 0.56206715 0.5923515 0.6999562 0.29759312 -0.123481005 0.19196935 0.28975844 0.3040815 0.38926408 0.36657846 0.53076774 0.663566 0.5897583 0.59297204 0.80171824 0.78617543 0.5019425 0.89167756 0.88332605 0.6392613 0.55621815 0.6082308 0.627693 0.56597733 0.56669134 0.28795862 0.2940474 0.20473449 0.25579414 0.2913601 0.37059158 0.32362646 -0.0069464594 0.48586053 0.5321568 0.58244216 0.55584145 0.54917717 0.5396045 0.29599625 0.29277915 0.09933125 0.3443426 0.1218023 0.5021254 0.47314093 0.49183902 0.40597034 0.41371077 0.44827026 0.4675638 0.40844497 0.2582621 0.29215628 0.39037627 0.43460542 0.52835834 0.16349821 0.6864807 0.64532113 0.6206894 0.62468994 0.4790145 0.49632913 0.5037619 0.41826344 0.5219338 0.5444598 0.33402497 0.49565756 0.41485697 0.16770953 0.09687632 0.40452653 0.5348316 0.12680891 0.64969945 0.6881189 0.6739028 0.47102812 0.61217296 0.65474504 0.6069759 0.50093937 0.44976342 0.5539796 0.4601804 0.40572596 0.5533388 0.3810826 0.55628365 0.33972937 0.60939825 0.6775408 0.67375416 0.19999991 0.3637792 0.6267872 0.63818634 0.58137596 0.5348028 0.59273565 0.6436093 0.61001843 0.45790178 0.42818987 0.58073735 0.56356907 0.46061733 0.5896029 0.573364 0.64348495 0.32867882 0.47644964 0.6194596 0.65324426 0.5222856 0.60420525 0.61651504 0.65727925 0.56768334 0.5814251 0.6617878 0.20918608 0.41612926 0.42709786 0.40997517 0.44112644 0.46917057 0.57227266 0.68558115 0.67509073 0.7611717 0.7063339 0.6945642 0.79012775 0.6543191 0.5622014 0.7074763 0.613108 0.62642515 0.7192513 0.75169694 0.79016685 0.7784164 0.7797678 0.7965719 0.8581165 0.7111927 0.7938689 0.8551327 0.8501564 0.6642896 0.68475103 0.8494228 0.82219136 0.8367507 0.81981766
SCALARS features_01 float 1
LOOKUP_TABLE default