# vtk DataFile Version 2.0
Really cool data
ASCII
DATASET POLYDATA
POINTS 10497 float
56.171272 -23.64372 22.689978
56.178593 -23.644146 23.225471
56.354088 -23.0001 20.771334
56.100056 -23.185314 21.823135
55.865406 -23.224697 22.72094
55.95036 -23.26356 23.394873
56.17724 -23.141478 23.966732
56.286545 -22.472925 20.69367
56.005512 -22.438223 21.63501
55.745056 -22.571129 22.609426
55.7647 -22.537699 23.327084
56.084225 -22.555317 23.985907
56.392998 -22.077034 20.657003
56.209774 -21.878004 21.666777
55.99955 -21.845886 22.69065
56.055954 -21.879263 23.427464
56.15656 -22.039701 23.890394
56.174866 12.13428 23.953487
56.29485 12.017748 24.280771
56.317642 12.097196 25.061892
56.347275 12.729656 23.26316
56.21081 12.48852 23.668041
56.05729 12.51545 24.547043
56.076385 12.58883 25.551357
56.210724 12.681269 26.47403
56.23192 13.1319685 26.956678
56.19319 13.239929 23.611885
55.95113 13.476954 24.54898
55.82692 13.3851385 25.645927
55.812088 13.721699 26.448425
56.166443 13.74294 27.247938
56.28826 14.0103655 23.802015
55.9867 14.658033 24.915295
55.786087 14.56411 25.599413
55.774612 14.508442 26.476053
56.089 14.362139 27.25135
56.14634 15.026252 24.987759
56.08266 15.322288 25.684881
56.076775 15.213333 26.383907
56.200287 15.030401 27.107836
56.96742 -23.655287 20.889315
56.668724 -23.712929 21.74713
56.570656 -23.855972 22.711882
56.627365 -23.834396 23.500353
57.07704 -23.714642 24.206766
56.931477 -23.068352 20.109787
56.723995 -23.261095 20.548962
56.464676 -23.44009 21.350414
56.31904 -23.575949 23.62739
56.76243 -23.319595 24.405796
57.08466 -23.10537 24.791885
56.79445 -22.497822 20.027166
56.500378 -22.43282 20.358404
56.467056 -22.479067 24.407507
56.887714 -22.44143 24.742558
56.90643 -21.985872 20.062326
56.71265 -21.731749 20.566637
56.57174 -21.540129 21.267046
56.421608 -21.43604 22.272137
56.502956 -21.50802 23.534775
56.75791 -21.682753 24.185963
57.107452 -21.920296 24.689722
56.987503 -21.32462 21.023453
56.79109 -21.255095 21.738056
56.806824 -21.186745 22.587368
56.852245 -21.266562 23.457111
57.110703 -21.30632 23.953356
57.22494 11.061443 23.765606
56.96773 11.249557 24.46438
57.06396 11.22892 25.272938
57.110126 11.285498 26.076534
56.886482 12.010018 23.009777
56.557808 11.826019 23.633955
56.606976 11.625373 24.60488
56.573524 11.838821 25.477907
56.892765 11.696912 26.370901
57.07629 11.902323 26.951529
56.661446 12.565301 22.989355
56.474953 12.416427 26.568295
56.65026 12.742229 27.141813
57.023396 13.024014 27.649338
56.596157 13.424711 23.061571
56.499252 13.800413 23.359035
56.41112 13.709718 27.539259
56.65856 13.83951 27.745985
56.94887 14.236766 23.120785
56.71488 14.486012 23.533348
56.40311 14.607357 27.568794
56.683186 14.422758 27.760979
57.186672 14.700138 23.238485
56.918797 15.091953 24.076572
56.585075 15.360595 24.880049
56.371033 15.512312 25.330717
56.37345 15.463914 26.484224
56.644844 15.102143 27.338377
56.826897 14.8964205 27.688923
56.585697 15.642404 25.680136
56.70572 15.655722 26.467453
57.581432 -23.760408 20.689384
57.60896 -23.972143 21.414331
57.19644 -24.082678 22.57258
57.498055 -24.014172 23.586952
57.590874 -23.934217 24.061068
57.571484 -23.145487 19.893454
57.668533 -23.29179 24.889673
57.560963 -22.452261 19.659113
57.47324 -22.723198 25.071945
57.61857 -21.798483 19.864367
57.674572 -21.424564 24.463472
57.594707 -21.957903 24.916782
57.580185 -21.212994 20.596653
57.8758 -20.876972 21.574429
57.74413 -20.854094 22.444149
57.478676 -21.028831 23.528172
57.656124 -21.26424 24.323736
58.45906 -5.9715986 9.617275
58.218197 -5.958915 18.931564
58.114635 -6.164841 19.758638
58.176273 -6.1715407 20.230835
58.40707 -5.381586 9.701467
58.41677 -5.50817 10.035883
58.341972 -5.173979 15.98872
58.20165 -5.2567067 16.63069
58.17159 -5.301276 17.71097
58.028656 -5.581236 18.906248
57.875443 -5.4113297 19.485922
58.009968 -5.4257197 20.31852
58.26514 -5.4666367 20.747643
58.445717 -4.9774704 9.38929
58.450897 -5.0028157 9.974448
58.19025 -4.54428 15.983168
58.00082 -4.5356474 16.561825
57.945118 -4.444162 17.53905
57.928112 -4.706654 18.317072
57.86521 -4.67816 19.499561
58.092396 -4.646952 20.282478
58.31724 -3.8546422 15.964556
58.172047 -3.8253672 16.473597
58.14938 -3.4969814 17.59375
58.019608 -3.5441225 18.488174
58.034824 -3.500316 19.285679
58.284885 -3.5546067 20.243912
58.19358 -3.0104876 18.465338
58.2488 -2.9371834 19.526615
58.33213 1.7977592 18.96102
58.17951 1.6207509 19.693556
58.03193 2.0177958 20.497723
58.23553 2.1336808 21.053606
58.141636 2.5185485 19.051437
57.740192 2.6965644 19.8041
57.7085 2.712668 20.481428
57.980904 2.627423 21.089096
58.1006 3.3334343 19.211912
57.740578 3.2852957 19.849386
57.693874 3.4012341 20.443424
57.93698 3.358238 21.041626
58.037888 3.8876498 19.936607
57.966877 3.8607426 20.541323
58.054993 3.8742516 20.894857
58.193142 10.091997 24.543365
58.226936 10.0627165 25.134232
58.17544 10.748107 22.965685
57.962173 10.618756 23.638039
57.445686 10.940956 24.370678
57.81704 10.742968 25.60185
57.54167 11.210402 26.421062
57.88717 11.673041 22.546238
57.649746 11.774645 27.262407
57.86802 12.548609 22.197664
57.310467 12.966769 22.492605
57.46877 12.36678 27.485823
57.373917 13.096815 27.778149
58.077007 13.507826 22.268948
57.448517 13.445021 27.850595
57.69243 14.220461 22.781885
57.197735 14.541959 27.873642
58.028175 14.769936 23.004385
57.47164 15.004055 23.666876
57.28989 15.233863 27.365362
57.255917 14.935105 27.688915
57.132347 15.7150755 25.478434
57.21624 15.676086 26.418137
57.074306 15.604952 26.910658
58.262623 -23.75422 20.57211
58.380127 -24.035242 21.435806
58.56755 -24.200653 22.437231
58.07473 -24.188787 23.320156
58.555023 -23.99592 24.18376
58.781834 -23.761496 25.082972
58.399006 -23.186796 19.873755
58.572495 -23.329586 25.288158
58.942986 -23.152004 25.575497
58.427383 -22.484478 19.57991
58.516277 -22.401678 25.43103
58.94688 -22.359863 25.637238
58.429283 -21.862726 19.727566
58.575245 -21.808788 25.31643
58.321217 -21.349924 20.109604
58.43709 -21.14036 20.553965
58.360573 -20.716894 22.026442
58.26556 -20.695211 22.212793
58.7167 -20.634151 23.112679
58.716938 -20.935917 24.507
58.890816 -21.09459 24.885038
59.285545 -7.886086 19.621798
59.37034 -7.805318 20.857786
59.281666 -6.862041 8.977393
59.066227 -6.803926 9.561745
59.18698 -6.925918 9.957354
58.73705 -6.9720063 19.722229
58.81704 -7.070066 20.198008
59.0191 -6.980123 20.89708
59.329 -6.062747 7.967212
58.957943 -6.346725 8.929816
58.698112 -6.2708354 9.619128
58.798306 -6.3101697 10.295627
59.048115 -6.091981 10.825907
58.82384 -5.6330996 16.078674
58.76396 -5.809763 16.705294
58.57948 -5.8290253 17.64884
58.95749 -6.5703783 18.385328
58.41825 -6.5157156 19.406982
58.453934 -6.359515 20.53067
58.713448 -6.3003945 20.913916
59.23839 -5.6759496 8.035547
58.66212 -5.2378716 8.723023
58.50113 -5.7370143 9.393718
58.553402 -5.5173907 10.386234
58.88501 -5.191338 11.00714
58.933117 -4.889426 15.2384405
58.68087 -5.2423353 15.721914
58.477165 -5.407196 16.165773
58.430008 -5.6086044 20.926186
59.23717 -4.790066 8.006161
58.643414 -4.6499586 8.792058
58.52134 -4.5958705 9.671338
58.606693 -4.7570806 10.336233
59.068302 -4.634936 11.1334715
58.826897 -4.6672583 15.275709
58.515297 -4.487175 15.472937
58.475155 -4.329607 20.480759
58.494778 -4.846261 20.895922
58.93591 -4.084862 8.813523
58.864235 -3.9486494 9.523839
58.94427 -3.9941812 10.255644
59.244625 -4.1374993 11.028961
58.7108 -3.5711203 15.629487
58.9573 -3.3813617 21.206066
58.59524 -3.1277018 16.198826
58.588596 -2.6166244 17.521458
58.593204 -2.2307029 19.929724
58.596497 -2.897716 20.715944
58.801517 -2.4203458 21.268438
59.1836 -2.2717588 21.945227
59.284042 -2.1428616 15.789556
58.981647 -2.219367 17.86991
58.838078 -2.0066705 18.94176
58.967518 -1.5241226 19.949032
58.97287 -1.3746969 20.487022
58.870457 -1.9910707 21.479795
59.073822 -1.9786377 21.786573
59.29531 -0.22154567 19.079008
59.274902 -0.29327586 19.70662
59.255108 -0.9194871 21.354586
58.931778 0.75467646 18.969069
58.91843 0.6679621 19.295603
58.796734 0.78322303 20.254904
59.14713 1.3948543 18.169037
58.49473 1.8128119 18.772491
58.64905 2.0794187 21.26702
59.18184 1.9718701 21.727299
58.758553 2.1866128 18.233717
58.484875 2.4895222 18.63089
58.341442 2.8270884 21.49502
58.502663 2.6051793 21.587618
59.091396 3.2102046 18.136969
58.548325 3.2231398 18.783106
58.368977 3.3573081 21.44119
58.833416 3.0920854 21.68922
58.74911 3.8627844 19.089802
58.636047 4.0853715 19.707518
58.65777 4.2100306 20.526314
58.540527 3.8883998 21.162264
59.339863 7.9790297 24.516277
59.07234 8.717321 23.718702
58.9232 8.7568445 24.524351
59.218388 8.825834 25.369398
58.900703 9.9109955 22.7067
58.78675 9.601687 23.288458
58.616585 9.537845 24.394505
58.875248 9.478185 25.492228
59.10194 9.288269 25.734612
58.961975 10.978408 22.166073
58.69617 10.628729 22.488604
58.38144 10.818247 26.434673
58.14023 11.064656 26.829336
58.575336 11.642539 22.01998
58.72942 12.098315 27.682001
59.05024 12.147169 21.57636
58.272438 13.197541 27.905823
58.55828 13.956034 22.07173
58.87581 14.191614 22.44659
58.06297 14.459785 27.82414
58.60893 14.893821 22.916983
58.41585 15.155136 23.303715
58.745464 15.294006 26.51222
58.274563 15.209924 27.033047
60.371243 -36.497444 16.692183
60.38368 -36.377304 17.18405
60.329308 -35.78364 16.940477
60.40164 -35.846336 17.303562
58.85478 -23.73597 20.629406
59.797997 -23.708895 21.580841
59.295166 -24.271881 22.355589
59.746582 -24.302097 24.60355
59.711643 -23.95381 25.177631
59.02301 -23.08061 20.042114
59.178463 -23.472591 20.610622
59.52449 -23.184645 25.75494
59.147076 -22.52033 19.856672
59.573807 -22.446442 25.842632
59.06379 -21.803797 20.006723
59.379425 -21.454782 20.575748
59.50596 -21.34555 25.460283
59.578533 -21.602283 25.608473
59.377274 -21.284267 20.771101
59.46159 -20.966043 21.53884
59.524376 -20.636732 22.431927
59.609413 -20.61001 24.52038
59.66793 -21.007662 25.262974
59.835907 -20.4422 23.664383
60.07868 -8.689249 19.405611
60.271286 -9.0166235 20.093655
60.39582 -9.090176 21.012886
[...]
POINT_DATA 10497
SCALARS features_00 float 1
LOOKUP_TABLE default
0.7812652 0.78718376 0.8582022 0.83903617 0.84606624 0.8457338 0.84480107 0.86202574 0.8600465 0.92057693 0.91392237 0.8690421 0.85079944 0.81314605 0.84130645 0.8266019 0.819585 0.5351008 0.5046787 0.47854304 0.5951109 0.5764745 0.5463612 0.53107786 0.5704174 0.6422871 0.6051868 0.64113367 0.6850749 0.76541686 0.7255504 0.5776313 0.65254635 0.78476524 0.84031266 0.78613186 0.64973515 0.7479849 0.7941044 0.7894628 0.82031274 0.76726717 0.7254837 0.7386434 0.71875066 0.9058956 0.8642231 0.81829417 0.79234385 0.78070736 0.74044704 0.9120972 0.8813081 0.814119 0.7513865 0.9016771 0.83916163 0.78135943 0.7482859 0.7333239 0.7135448 0.68591475 0.77153957 0.7181214 0.6873466 0.6763223 0.6486347 0.4173379 0.4042302 0.37760878 0.40552035 0.5336703 0.5096862 0.44136208 0.44618475 0.4577474 0.4875601 0.5828997 0.5392417 0.5825474 0.596169 0.57728785 0.5657224 0.70511717 0.69967926 0.4978229 0.5149547 0.76803607 0.7371722 0.4612791 0.5013581 0.61336255 0.70127094 0.77856874 0.7612267 0.7419535 0.7290139 0.7501374 0.8191737 0.70328414 0.6620997 0.6514931 0.64767945 0.9703176 0.6599816 1.0 0.67923105 0.96799695 0.59986126 0.63574004 0.8190305 0.6349664 0.57659113 0.58714896 0.58970654 0.6640436 0.47035268 0.49552953 0.48556226 0.6555799 0.6578499 0.53824127 0.5430542 0.4800382 0.48179874 0.5052081 0.49146414 0.45563504 0.6453924 0.64705145 0.5522236 0.560037 0.5057235 0.46788913 0.47584903 0.44419757 0.50469875 0.50461 0.4145543 0.38418776 0.35592028 0.33296973 0.32208073 0.2973888 0.42474723 0.5440241 0.75542116 0.6854476 0.5766291 0.8095062 0.8633102 0.7661238 0.71239245 0.8652934 0.9055569 0.8311051 0.8704974 0.8998277 0.8631573 0.32931116 0.31078488 0.3500996 0.36123362 0.36656782 0.32124132 0.39686766 0.40896523 0.4462667 0.49475765 0.5592318 0.50178224 0.571508 0.48398793 0.5956818 0.44398236 0.6949445 0.39147744 0.42934912 0.6881905 0.6977845 0.64517224 0.68407756 0.7059923 0.76642984 0.6076721 0.51257795 0.5827618 0.5221497 0.50422865 0.9405881 0.5483482 0.524904 0.9981706 0.56654084 0.5408519 0.91435784 0.5604071 0.8193351 0.70687336 0.52456105 0.5163446 0.44723493 0.5394214 0.5506717 0.43822774 0.37957394 0.6496438 0.65190774 0.63748646 0.46336257 0.44499797 0.41131765 0.64850223 0.66093063 0.6670833 0.66663647 0.67416996 0.47774613 0.45795977 0.40845042 0.3670418 0.47686362 0.46172875 0.4246952 0.63358843 0.64745104 0.65928817 0.66021734 0.66985494 0.4725398 0.5047853 0.5259545 0.43270305 0.58148456 0.6426482 0.63493884 0.64240426 0.6441462 0.48284692 0.5149654 0.39156467 0.40390593 0.62275183 0.60684586 0.59954834 0.5818603 0.42557847 0.30001128 0.35302976 0.27923283 0.24795122 0.2973685 0.2749076 0.23981866 0.09921477 0.19719622 0.16644628 0.12503934 0.17838372 0.25784963 0.24633965 0.046862774 0.04744336 0.2225083 0.25397238 0.25956154 0.33580333 0.2385827 0.38675013 0.5637945 0.3630898 0.34735203 0.4605987 0.67581713 0.615593 0.37959415 0.56396633 0.71671593 0.57817847 0.65240073 0.7728329 0.8009461 0.7628531 0.6306746 0.5372658 0.5341481 0.50658476 0.33371603 0.39604503 0.4071467 0.38495126 0.3991956 0.27217537 0.29984114 0.3192523 0.3516704 0.30149105 0.28944355 0.24525133 0.43404993 0.38300937 0.3335706 0.57348084 0.31660458 0.3059041 0.3532379 0.5162659 0.39849287 0.41016668 0.38092485 0.39776984 0.680982 0.3983173 0.3915534 0.43141228 0.43769503 0.86938787 0.6940402 0.49944746 0.849666 0.51628673 0.7330835 0.56456953 0.54726374 0.5387359 0.5298858 0.4568052 0.42436302 0.50244296 0.5530034 0.38274497 0.3568957 0.31738308 0.27514574 0.6654362 0.35465539 0.391302 0.3808368 0.34264433 0.6921944 0.70320976 0.6519443 0.5844862 0.60420173 0.56101453 0.2672894 0.3308775 0.35766545 0.28151506 0.64854646 0.6655339 0.61205745 0.42525965 0.3306132 0.34832722 0.3149603 0.58657956 0.5738394 0.67420536 0.3973093 0.298087 0.50296694 0.22348768 0.23715928 0.21612555 0.22808672 0.4272921 0.5361105 0.49655873 0.23404257 0.19036338 0.40072396 0.086857796 0.21312569 0.14052665 0.21215285 0.17600441 0.07064395 0.046481352 -0.010250755 0.18529439 0.80823433 0.7533419 0.17033783 0.17529824 0.018708955 -0.21440461 0.2208849 0.19976383 0.79983914 0.13494234 0.178621 0.1767117 0.13470015 0.049655158 0.0676357 0.16516253 0.15616025 0.18853152 0.195878 0.1338297 0.14139833 0.02130825 -0.09024283 0.17325427 0.16108605 0.16403627 0.060189113 0.03116751 -0.08200919 0.17801929 0.38365668 0.5614496 0.5223963 0.41607264 0.124850586 -0.0053522773 -0.054418832 0.47572845 0.64062095 0.6053959 0.50929785 0.20051366 0.24565323 0.53241616 0.66638553 0.47646222 0.6572412 0.61014396 0.5240443 0.2645769 0.107118234 0.5557872 0.48177996 0.23525628 0.5571717 0.60090667 0.63556904 0.62994957 0.47440857 0.53095305 0.4798568 0.46297783 0.28699797 0.2840209 0.25020984 0.23744091 0.1320401 0.12074016 0.21806723 0.14191191 0.64063466 0.60871774 0.531882 0.6523664 0.66571057 0.591057 0.39972895 0.5342754 0.60640424 0.6223344 0.56015307 0.52614915 0.5497226 0.1766423 0.20926094 0.43451273 0.48232424 0.015302099 0.07311708 0.5022577 0.42541194 0.3681147 0.56297266 0.44659376 0.41155496 0.337467 0.28020722 0.32116628 0.20193633 0.28659853 0.29141498 0.3788805 0.39632595 0.3927202 0.35577694 0.33676738 0.38769194 0.41384864 0.40177286 0.3513399 0.33422422 0.5471832 0.51059425 0.3384716 0.32612917 0.39731252 0.38851655 0.29925194 0.26459414 0.5991204 0.5855103 0.545925 0.39003226 0.21567658 0.21274152 0.24729833 0.29522687 0.2549713 0.26135826 0.6102989 0.59044707 0.52888125 0.31373864 0.2065318 0.026892588 0.07795191 0.4108641 0.3802997 0.34650296 0.57262087 0.4948858 0.3642263 0.22179173 0.3534951 0.48285556 0.45988864 0.43817088 0.25102478 0.34166014 0.47742903 0.52705663 0.5059048 0.36582515 0.4474992 0.4793777 0.31400284 0.31024268 0.22729644 0.38073596 0.42951357 0.60307735 0.3924015 0.43916047 0.33412844 0.5112848 0.38278627 0.35999775 0.33111316 0.42268682 0.52251357 0.27986225 0.34856933 0.41278374 0.21550459 0.2946377 0.20650277 0.23203394 0.21417162 0.22571185 0.40432698 0.43199617 0.26616478 0.26048726 0.2653605 0.23734616 0.24740505 0.3873852 0.40913907 0.72417575 0.6465268 0.551235 0.21499494 0.27912018 0.23781234 0.33506674 0.70914423 0.7303786 0.52227896 0.3974241 0.37346062 0.2494788 0.21740365 0.5998379 0.64787805 0.29141122 0.14792645 0.58490765 0.581323 0.2885949 0.09148012 0.19514343 0.13110116 0.35514528 0.35535973 0.34205973 0.4305739 0.12437086 0.21277784 0.45154443 0.44179517 0.4247273 0.26933685 0.32321015 0.12640902 0.10813398 0.47605032 0.5834022 0.5923227 0.5438837 0.07415786 -0.06956166 -0.23114894 0.13730243 -0.013969287 0.44786096 0.5913507 0.580663 0.53434527 0.88323355 0.8336701 0.72502255 0.43842322 0.019496862 -0.03595706 -0.037906747 0.06622137 0.15006173 0.4652581 0.5205389 0.49353623 0.9135399 0.8604125 0.72044003 0.63211864 0.28772777 0.043940257 -0.104443 0.06378072 0.16648643 0.91184807 0.8476021 0.74045146 0.58303463 0.45865148 0.28809264 0.1970242 0.18638873 0.8058682 0.7169454 0.6265975 0.36403817 -0.04217501 0.16501367 0.18675911 0.17310235 0.16177559 0.1420725 0.592152 0.51047 0.41339433 0.30315265 0.26271528 0.6526208 0.6323151 0.024337243 -0.043391034 0.30598164 0.2841796 0.7721463 0.7625481 0.6584924 0.663217 0.11798854 0.03456075 -0.04948862 -0.030479074 0.15778181 0.24118836 0.8393823 0.8146814 0.7960417 0.6085146 0.53343904 0.357564 0.110047266 0.046061724 -0.0051548034 -0.023784548 0.5678918 0.59344417 0.83873916 0.8107192 0.19040014 0.28634498 0.24717844 0.13459277 0.059128046 0.53710943 0.5956074 0.60444605 0.5741816 0.26561582 0.35095203 0.38795888 0.3494612 0.27473697 0.38191634 0.4178659 0.2954854 0.3755996 0.40893468 0.43414873 0.3733276 0.26927832 0.46034846 0.19416746 0.21217859 0.19169074 0.19510363 0.42352146 0.13212007 0.31824857 0.52033454 0.576283 0.58612746 0.576954 0.5846402 0.6009972 0.5119038 0.55003077 0.57039136 0.58725435 0.5234064 0.45352787 0.2765462 -0.09968024 0.46510774 0.5212775 -0.11717259 -0.037388667 0.11286469 0.20024584 0.3221169 0.39186406 0.53312755 0.44083026 0.61567676 0.5846151 0.5325781 0.41483504 0.31043655 0.6423751 0.6204728 0.52253747 0.4562388 0.3007528 0.23824713 0.11252629 0.08299667 0.65758944 0.6327146 0.5428914 0.18143438 0.121816576 0.03880977 0.62110156 0.43599528 0.2276146 0.26263642 0.11688653 0.32999548 0.32844743 0.30394465 0.39582092 0.23618665 0.3149606 0.5545919 0.4369956 0.21627733 0.59282804 0.22565275 0.2143974 0.6262015 0.61541367 0.07131531 0.2864877 0.23607598 0.63807106 0.62544924 0.58625174 0.11118135 0.0820999 0.3967517 0.3364092 0.6289788 0.5925442 0.53247213 0.34139395 0.24221942 0.14085746 0.23283604 0.42523772 0.34825447 0.2395709 0.25925493 0.3039809 0.36617792 0.4051624 0.4845243 0.28166357 0.3251475 0.5410413 0.53440243 0.5386424 0.49116993 0.5076404 0.4041437 0.19132869 0.24517196 0.21084347 0.18815413 0.23252815 0.24219064 0.25576085 0.16854322 0.27855545 0.27604052 0.1970368 0.28182486 0.2895866 0.5105917 0.2749649 0.2587765 0.24133515 0.2345213 0.28339884 0.62997615 0.64438903 0.6339255 0.21953827 0.245346 0.2213631 0.2797554 0.37315136 0.41386384 0.63564557 0.65938735 0.6326039 0.17563766 0.44571954 0.4125389 0.5503303 0.6621375 0.63327813 0.5652615 0.08992784 0.40810594 0.3669733 0.7024982 0.7018274 0.6418694 0.56316644 0.30767983 0.30081704 0.6890736 0.37091476 0.2663353 0.016174186 0.13411294 0.13332506 0.6105204 0.6257364 0.11704137 -0.060152046 -0.25454143 -0.035125796 0.061291434 0.19969952 0.24769542 0.21541995 0.47017843 -0.025438346 -0.17586334 -0.28551137 -0.353419 0.2516755 0.31171757 0.2926043 0.25611928 0.43249583 -0.3258309 0.37405878 0.33122617 0.25288785 0.24566051 -0.10455252 0.38367897 0.4157995 0.40095517 0.8404529 0.8146832 0.6466733 0.16757216 0.43859264 0.3538963 0.87683487 0.8723011 0.8413571 0.6552854 -0.2008855 0.4400791 0.39451298 0.8963165 0.9034245 -0.00737644 0.09938446 -0.049133785 -0.0041909516 0.2695405 0.90134156 0.9052802 0.211303 0.031909883 -0.038483776 0.09665142 0.026929066 0.8510752 0.7981087 0.69629645 0.5787029 0.40717888 0.30081293 0.10734733 0.062024258 -0.10334247 0.4260785 0.27346715 0.1308199 0.54380655 0.054434683 0.06506721 0.7949705 0.7078569 0.62516034 0.65907943 0.6166142 0.09837714 0.075991146 0.8142816 0.7432373 0.7317268 0.70692986 0.5960356 -0.00012884289 0.08700574 0.88518846 0.8626543 0.77165806 0.7498197 0.5875376 0.5277599 -0.04183744 0.52139294 0.9083154 0.91487336 0.85966563 0.80423105 0.759086 0.2696259 0.0130927265 0.5044899 0.51016825 0.4543117 0.3479106 0.93701386 0.89293647 0.81585276 0.08824339 0.20420408 0.14502588 0.14409699 0.21578193 0.32282415 0.20041016 0.39186513 0.21260227 0.20769688 0.22390553 0.34397033 0.41297805 0.45171374 -0.16460538 0.16160801 0.033375956 0.020428658 0.44123995 0.54827017 0.6019385 0.4159537 0.6029661 0.28796196 0.2726149 0.56670094 0.59407234 0.22296143 0.4232463 0.30607808 -0.09536155 -0.123398215 0.54035026 -0.02790704 -0.008671671 -0.019405626 0.07486527 0.22867787 0.3739208 0.46615338 0.5212505 0.04943142 0.11057415 0.20714119 0.34481645 0.28321466 0.25004905 0.26308426 0.2890169 0.5294911 0.46097064 0.3614452 0.23850623 0.15351744 0.18866223 0.23308334 0.5914992 0.20148069 0.18129005 0.21380527 0.5757404 0.60996544 0.5905224 0.63801676 0.061958574 0.06095118 0.62667906 0.60826075 0.546063 0.18754764 0.5654131 0.4817106 0.25150275 0.22476979 0.30916604 0.4635771 0.54704285 0.5170165 0.15501836 0.6148318 0.20078762 0.08701904 0.63557255 0.21290343 0.15027203 0.63248384 0.58451927 0.46525493 0.27701917 0.14378853 0.5260464 0.39297307 0.16780426 0.13324347 0.19017455 0.39154682 0.25296018 0.20506924 0.25301582 0.25854683 0.25485823 0.26285595 0.373537 0.41987956 0.25672978 0.5017848 0.4598368 0.34687725 0.46901757 0.3876279 0.32651606 0.224901 0.28373012 0.20593056 0.05078482 0.16139494 0.09493978 0.12472706 0.036117554 0.11246241 0.028024584 0.025734097 0.18685094 0.036372602 0.6412549 0.006324917 0.56747526 0.60775757 0.6657738 0.087844655 0.25260833 0.38619125 0.5111255 0.6020439 0.6274393 0.04856185 0.33222574 0.47061354 0.5332104 0.34283426 0.32948118 0.2777289 0.20923522 0.57108694 0.5822388 0.56175125 0.31328902 0.2849524 0.28961536 0.22886883 0.2244941 0.2718959 0.15784547 0.58223224 0.6204946 0.6102097 0.5496427 0.2282674 0.22557077 0.3429779 0.22167501 0.55149823 0.5930446 0.5971893 0.54894733 0.1301353 0.11227012 0.2530977 0.17864424 0.38985413 0.46882427 0.51260567 0.5050979 0.5733894 0.49109894 -0.16417319 -0.21804635 0.17032653 0.09297019 0.19937244 0.32756078 0.4196393 0.491733 0.64807606 0.5526541 0.0014036298 0.4445541 -0.24945453 -0.06850226 0.02482909 0.056151636 0.1137761 0.62133294 0.6260351 0.045437872 -0.30829248 -0.16181529 -0.14114092 -0.13009132 0.00048959255 0.0587537 0.06605633 0.05984741 0.56985116 -0.2845828 -0.3306528 -0.2938518 -0.38396692 -0.3014288 -0.38192433 0.11988702 0.10208334 0.1917595 0.32950374 -0.39681914 0.096014075 0.16755271 0.21086183 0.38208914 0.27138844 0.23429902 0.3422357 0.42738825 0.13224007 0.32238093 0.4057888 0.8253143 0.78654563 0.16224852 0.24599135 0.8674886 0.82984996 0.16583993 0.8729449 0.12728968 0.88636816 0.8722386 -0.08643822 -0.035349708 0.026899245 0.8317466 0.70009536 0.65476215 -0.11108466 0.6129723 0.55979276 0.42013443 0.25534534 0.16527808 0.03822127 -0.059685174 0.07320771 0.54540056 0.5132328 0.5406137 0.044248693 0.78917277 0.5781507 0.60386807 0.63802147 0.24201703 0.07611047 0.771086 0.6784687 0.3626113 0.083473474 0.07336414 0.7399079 0.70889586 0.66497266 0.26708066 0.04758861 0.049353644 0.75352275 0.6998797 0.637704 0.016838223 -0.024755448 0.33331946 0.30406085 0.8831997 0.8904377 0.7751179 0.69112086 0.0270779 -0.05907879 0.12022733 -0.0027940273 0.14315654 -0.38714486 -0.06754659 0.15500584 0.15158504 0.32656595 0.27605635 0.45464197 0.3420746 0.62543595 0.26843715 0.6082282 0.11399085 0.57957685 0.59294546 0.46444923 0.38895816 0.23549727 0.06734528 0.5690887 0.48265368 0.4283727 0.31741562 0.21212742 0.11360964 -0.18780297 -0.07642919 0.5055623 0.5514872 0.36388904 0.1800458 0.15310861 0.16103093 0.16575362 0.16877247 0.2685917 0.38818118 0.45671466 0.320378 0.2841536 0.26262504 0.24821448 0.19569588 0.17735158 0.40922746 0.42411178 0.2570411 0.30578402 0.41597882 0.35482463 0.32664728 0.2667135 0.16687897 0.15217544 0.23706397 0.30706477 0.33348417 0.34776056 0.4659002 0.118477285 0.3124488 0.26769105 0.4493367 0.23251152 0.22274631 0.1948368 0.523112 0.042996313 0.5235958 -0.06547516 0.52181596 0.5222184 -0.07904683 0.3292221 0.28238696 -0.036833897 0.23368569 0.34672022 0.066355705 0.1811545 0.45219654 0.015398689 0.024447292 0.55620134 0.07652671 0.028522607 0.5928145 0.069911726 0.03826126 0.030342232 0.61092156 0.033061467 0.033846743 0.43005908 0.22412826 0.09843192 -0.047785103 0.056528427 0.07421193 0.18003595 0.2210595 0.17535982 0.16623592 0.27378 0.4157583 0.10698795 0.22734758 0.24406913 0.21704707 0.35729122 0.20037168 0.20560515 0.26653805 0.23478767 0.107458964 0.25602224 0.17983906 0.14050435 0.044351898 0.02279285 0.046579733 -0.053254448 0.019681543 0.003052637 0.04708825 0.07922755 0.009030575 0.08019459 0.030572996 0.35077244 0.4526713 0.69767433 0.13162388 0.06914656 0.077346355 -0.08060132 0.75011635 0.8151065 0.103242084 0.05654967 0.018237107 0.028157018 0.7313962 0.81087327 0.0893579 0.049929563 0.023021333 0.026542507 0.08708154 0.31976086 0.46545607 0.5507718 0.66666585 0.0070971325 0.014443941 0.0402808 0.19026576 0.20029525 0.41672605 -0.01732187 0.027488917 0.35738504 0.35118574 0.27028537 0.16248637 -0.059423953 0.3331403 0.35123903 0.3620504 0.19017439 0.057068527 0.097083054 -0.029190406 0.5479243 0.48131448 0.5150654 0.502884 0.43891835 0.27895725 0.3131264 -0.06624941 -0.16240999 0.36105165 0.48266286 0.6049315 0.67974836 0.5061474 0.52951086 0.4680311 0.13587809 0.23736182 0.06384614 -0.27415925 0.15922965 0.27902216 0.48715103 0.58159924 0.6446978 0.66003036 0.43062556 0.3411038 0.1575919 0.050814882 -0.050602388 -0.06359981 0.10777741 0.5764582 0.61368704 0.33323497 0.084071614 0.024898529 0.0013979226 -0.27755067 -0.06522888 0.4173474 0.4948213 0.5634271 -0.28945923 -0.12389121 -0.044831447 0.08802303 0.3627361 0.54514736 0.4267704 -0.42890778 -0.32775325 0.1232066 0.08343266 0.432926 -0.47192615 0.33867797 0.2364986 0.37068754 0.40988582 0.119057186 0.4178409 0.4390248 0.095112294 0.4034971 0.41592246 0.6678395 0.36899352 0.18711743 0.3415202 0.7850882 0.6459427 0.019007036 0.10896267 0.8289833 -0.020232916 0.80736613 0.16074389 0.036224753 0.004164502 0.7706852 0.68526167 -0.12826774 -0.04360826 0.15802115 0.15060544 0.048179537 0.5693881 0.49726307 0.44725487 0.13640454 -0.12638421 0.06340322 0.11399245 0.1260991 0.37909693 0.4091533 0.4679863 0.17311707 -0.04178594 -0.012946121 -0.19185483 0.041750945 -0.091974564 0.5394838 -0.04015713 0.0052993298 0.3436838 0.5758212 0.036350884 0.08324741 0.06822691 0.5630067 0.5370991 0.6576289 0.6232791 0.60240597 0.14214927 0.097373284 0.17976713 0.14914389 0.71884996 0.72447526 0.83314234 0.7115245 0.6086067 0.18903658 -0.3012596 0.12070188 0.23335746 0.19349499 0.092671566 0.5968332 0.51036465 0.18392792 0.11464487 0.06704747 0.70843196 0.7130023 0.6785884 0.5767051 0.48372817 0.14053668 0.07434188 -0.048822477 0.12009444 0.347683 0.69318414 0.70580745 0.69926316 0.58860075 0.48397857 0.18442553 0.20777601 0.06933513 -0.052873172 -0.19617757 0.5015467 0.6643411 0.6571847 0.6351625 0.5755302 0.46611476 0.22887757 0.21970707 0.2838908 0.25693914 0.6170895 0.6156962 0.5501435 0.34382868 0.6087312 0.43864238 0.48661113 0.6132822 0.47580713 0.50369984 0.4916501 0.00882541 0.5169699 0.5573539 0.506745 0.4927641 0.41442442 0.23471789 0.11016274 0.16195107 0.22225687 0.42646974 0.46770686 0.41342583 0.33247942 0.20468439 0.1775658 0.4424076 0.44720447 0.46334964 0.43555653 0.3849893 0.26586545 0.51150817 0.49741328 0.48995578 0.28757328 0.31437477 0.44746506 0.44791666 0.38875407 0.35004866 0.2517864 0.055665188 0.1852878 0.4082061 0.42764062 0.40936255 0.3565363 0.37683776 0.3872689 0.32501388 0.270151 0.35031468 0.21639657 0.23986636 0.3238393 0.3994755 -0.032030568 0.37809795 -0.2135121 0.19373226 0.40482748 -0.18322055 -0.31752807 0.07042969 0.21261835 0.24781168 0.25611815 -0.20051035 -0.030148536 0.23109478 0.27364343 0.25330222 0.32707652 0.37921283 0.40787885 -0.020245928 0.15741813 0.2462346 0.22494026 0.3331492 0.41438276 0.44129384 0.43742043 0.2826374 0.06491831 0.1361002 0.29698062 0.4492394 0.4548718 0.43148535 0.31726038 0.010747506 0.23278472 0.3695062 0.44478694 0.44165736 0.41619536 0.41011074 -0.00017028861 -0.00022449717 0.3438281 0.3941619 0.38705617 0.3782878 0.031769406 0.009179689 0.17707302 0.30300328 0.37231287 0.38952327 0.01916849 0.3763435 0.44451252 0.4242422 -0.012305474 0.4434391 0.3339393 0.052847803 -0.016895242 -0.08046151 0.024734627 0.05350699 0.13305639 0.1948555 0.20115134 0.16277853 0.14751633 -0.36161458 0.16680934 0.11793359 0.16884719 0.17830591 -0.16959763 0.07535289 0.15645237 0.052980475 0.15196678 0.03139047 0.0147385225 -0.018081661 -0.09329943 -0.016762443 -0.016101673 -0.44767064 -0.12837775 0.12226239 0.080274135 -0.040889993 0.30019924 0.1516941 0.11693165 0.6617876 0.79057 0.11920597 0.13613334 0.8448734 0.11107874 0.12679493 0.8381316 0.10623702 0.6115502 0.7137677 0.7836748 -0.15117745 0.5293871 0.2858466 0.29157555 0.21494897 -0.021873802 -0.24899417 -0.13639987 0.13688333 0.28592038 0.3013844 0.33335322 0.23751578 -0.2078843 -0.11177232 0.13752963 0.17191432 0.113996446 0.38797385 0.25515348 0.041806072 0.27494973 0.40477318 0.5616124 0.65079826 0.37690562 0.43540445 0.3973937 0.30428675 -0.08697132 0.17296739 -0.15907647 -0.23357816 0.28541958 0.7150682 0.7031086 0.3660066 0.40925604 -0.34948295 -0.21112145 0.63920283 0.5922583 0.22982241 0.58243215 0.5796379 0.10249783 0.55599487 0.29650646 0.14477678 0.39436743 0.119012244 0.41693187 0.37120485 0.49507523 0.15275532 0.26851773 0.2772035 0.748836 0.6590158 0.07503329 0.75793827 0.01599358 -0.055833876 0.73754644 0.6839233 -0.041654065 0.6286169 0.50623643 0.018084839 0.17299652 0.42771512 0.3400448 0.2