# vtk DataFile Version 2.0
Really cool data
ASCII
DATASET POLYDATA
POINTS 302 float
65.432 2.996268 5.7611933
65.25066 3.7747748 5.3701267
65.24155 3.719171 6.048089
65.359436 4.5613713 5.1496773
65.23764 4.7498183 5.804544
65.31724 4.442346 6.3110037
65.26365 4.8846674 5.839528
66.39371 -0.9565713 7.5737743
66.15883 -1.3364103 9.782961
66.30577 -1.4556085 10.47583
66.36193 -0.7053969 7.8955636
66.13058 -0.8947195 9.583019
66.252884 -0.5911893 10.344097
66.390656 0.045589298 9.147427
66.331604 -0.20635864 10.089768
65.59686 3.1343396 5.016206
65.64825 2.8116586 5.3806376
65.4959 3.0406456 5.97506
65.72397 3.4806516 4.4894547
66.07433 4.6119943 4.240219
65.460396 4.5568686 6.768649
65.79675 5.472126 5.6962113
66.20097 5.9582977 6.7126517
67.176186 -6.073097 6.696477
67.090385 -6.057028 7.3274493
67.11045 -5.796254 7.9318595
66.74734 -5.2825217 6.819114
66.77789 -5.3946395 7.383172
66.77895 -5.1157527 7.8039293
67.251816 -4.740561 6.1463933
66.80131 -4.6967635 6.6872797
66.61987 -4.557303 7.738036
66.89276 -4.298027 8.349752
67.26035 -4.194972 9.100413
66.54597 -3.538171 8.337798
66.60227 -2.1060088 10.5077
66.86791 -1.9013457 11.020332
66.592705 -1.3205465 11.036065
66.75 -0.6786991 11.166579
66.63381 0.09890771 10.468247
67.00131 0.043460846 10.981537
66.401 3.8873713 4.0030513
66.66978 3.607542 8.151187
66.66121 4.5231037 3.8911426
66.4123 4.834643 4.0925255
66.80759 5.4968896 8.0766535
66.874794 6.3180504 7.646544
67.0287 6.212595 8.009835
67.00261 6.7171383 6.737045
68.03894 -6.6436033 6.784206
67.99324 -6.652371 7.2303967
67.80812 -6.124221 6.171285
67.68203 -6.367544 6.506621
67.537155 -6.3272758 7.459343
67.953 -6.1207304 8.1993065
67.377396 -5.6962905 6.109806
68.30634 -3.7603 3.4982557
68.22815 -3.061248 2.817145
68.1236 -3.410345 3.4679036
67.82913 -2.7845275 10.495591
67.897835 -2.719605 10.774812
68.35912 -2.456791 2.1055574
68.29997 -2.3228648 2.3544662
67.480804 -2.919786 6.4217386
67.55797 -2.1449811 11.096349
68.118645 -1.8288524 3.1803455
67.61582 -1.5538217 11.433422
67.48111 -1.1663857 11.531265
67.701904 -0.5051599 11.453439
67.53465 -0.9083336 11.521701
67.73867 1.268801 5.2550035
67.330124 0.16720107 11.06216
67.255 4.470849 3.7833922
67.886765 6.308355 8.247175
67.68021 6.963232 6.6729527
67.440125 6.861044 7.3916926
67.38355 6.669052 7.8422766
68.5972 -6.7546444 6.7521996
68.49816 -6.737598 7.3758245
68.33326 -6.60294 7.7517114
68.60385 -6.304397 5.986011
68.66157 -6.25988 8.169335
68.42087 -5.7021556 5.79114
68.315475 -5.1924367 9.054553
68.50604 -3.9898472 3.453398
68.49601 -3.8863404 10.002416
68.68413 -3.105289 1.9821845
68.52334 -3.432816 2.3794498
68.168724 -3.3719747 10.328159
68.141624 -2.9230568 10.652297
68.73218 -2.503651 1.5910306
68.32881 -2.1451406 11.013681
69.11041 -1.7938476 1.3516054
68.53382 -1.5932415 4.2533116
68.21068 -1.3348601 11.379155
68.437515 -0.8219513 11.305939
68.3839 0.022555351 11.088639
68.830315 1.6273832 10.226815
68.59529 2.1208029 10.112242
68.77467 3.065977 9.806802
68.23313 5.7117276 8.632587
68.39129 6.169511 4.9632196
68.59327 6.5602446 5.411582
68.44658 6.392754 8.25477
68.237854 5.9971905 8.552292
68.64719 6.935 6.053782
68.436455 7.0445776 6.552583
68.27643 6.9726744 7.4159665
68.09491 6.8411064 7.8201485
69.1219 -6.6414466 6.5667562
69.074135 -6.7038827 7.155496
69.578514 -6.486239 6.96138
69.30701 -6.1689377 8.165051
69.21372 -4.8287582 9.346246
69.55534 -4.5568 9.365631
69.65054 -4.0088 9.658709
69.45452 -3.5375762 9.928266
69.52735 -2.5437062 1.0951451
69.11935 -2.6320295 10.438984
69.9112 -1.827494 1.0057088
68.85811 -1.5488019 10.959538
69.54524 -1.1464593 1.3669901
68.887344 -0.23213461 10.900521
68.973625 -0.030955896 10.742402
69.242744 2.2824702 10.051134
69.24123 6.260849 5.3752694
69.52464 6.4117937 7.5069137
69.39734 5.9818354 8.305352
69.40447 6.645999 6.5282464
69.175766 6.808813 7.288951
70.14729 -5.8451257 8.023113
71.42287 -4.886631 -0.8160689
71.3879 -5.025182 -0.18658637
71.22659 -4.7251825 1.7990113
70.55091 -4.8478856 6.56588
70.12427 -5.533591 8.44277
69.96514 -5.4238133 8.689571
70.250786 -4.5423565 5.874755
70.61685 -4.4297547 8.884108
69.86728 -2.6690686 9.884074
70.974304 -0.8691896 0.7979759
70.20779 -0.5032891 9.562259
69.90996 -0.6235428 10.020429
70.49442 -0.1661284 1.6273984
71.20655 1.2357433 2.6421304
70.612724 2.4218922 9.141523
69.876015 3.3665943 9.266392
70.677124 4.666742 5.0933557
70.11082 5.7465453 7.598966
70.53543 4.7979836 7.807372
70.2868 5.750701 6.85426
69.68988 6.3497753 7.5420237
72.010086 -5.737519 0.19362898
71.94287 -5.2113748 -1.2262502
71.66617 -5.411138 -0.3650523
71.67154 -5.0772996 0.8467564
71.39889 -4.7746716 2.1263387
70.94573 -5.1609974 7.3873787
70.80482 -5.0783763 8.362271
72.18779 -4.8029437 -1.6387223
71.83778 -4.4993424 -1.3211048
71.67215 -3.7251785 4.148487
71.26857 -4.5025897 7.3160205
71.13252 -4.3948927 8.39468
72.13386 -3.7108183 -1.5480267
71.23741 -3.9852731 8.256764
70.917274 -2.1879008 8.742021
70.885735 -1.3403627 8.6814165
71.5203 0.56931853 1.8265681
71.09404 4.2009344 8.050895
72.95231 -6.051827 -1.073865
72.6005 -6.072508 -0.76030076
72.870445 -5.7028527 1.4730914
72.690704 -5.0791025 -1.8141143
72.73196 -5.002378 2.7594855
72.547775 -4.5532947 -1.8647888
72.70713 -3.775022 -1.8610394
72.16787 -3.4893186 4.6480446
72.61874 -0.7992368 0.30335563
72.946106 -0.5141468 0.6412618
72.10451 1.3288655 2.3990757
72.53397 1.7917218 2.855861
71.99696 4.1633315 4.7197104
73.408936 -5.9786563 -1.2400341
73.58517 -6.1810465 -0.46986842
73.38021 -6.1578197 0.1881243
73.47283 -5.3090777 -1.8052375
73.25609 -4.397775 -2.037818
74.07059 -4.204633 3.7824197
73.29206 -3.6582553 -1.9920925
72.830414 -3.044554 4.9711576
73.478874 -3.2234945 -1.741643
73.37045 -2.7385883 -1.3573551
73.76147 2.5574589 3.088633
73.54712 3.018211 3.499972
73.219215 3.7661858 5.944108
73.953285 -5.8422112 -1.3695371
74.684875 -5.9426737 -0.33154196
74.68528 -5.764169 1.4616793
74.88062 -5.636344 2.4742646
73.95726 -5.425614 -1.6798909
74.135254 -5.5480504 -1.4831153
74.48154 -5.333349 3.1131084
73.85692 -3.9375272 -1.9916711
74.696335 -3.1955647 -1.5113405
74.41097 -2.7640276 -1.3164452
74.8747 -2.1124494 -0.8392396
74.67425 -0.8059511 5.5781784
74.22158 -1.0700939 0.13049458
74.54562 -1.14601 0.36132845
74.5741 -0.23088646 1.9213686
74.93012 0.39272064 7.1573195
74.8215 1.1549034 7.472257
74.49859 2.445439 3.1455183
74.79914 2.4951906 7.340144
74.342865 3.1026223 3.6960797
74.14535 3.502988 4.4414597
74.69745 3.062253 7.0264792
73.98225 3.6348753 6.198775
75.209236 -5.7005124 -0.33490005
75.390594 -5.7550187 0.36520347
75.42162 -5.577397 2.3155146
75.39323 -5.0745287 -1.1134529
75.52406 -5.3149443 3.3021138
75.43557 -4.851104 3.8834434
75.319275 -4.52635 -1.3582953
75.4616 -4.570287 4.1456156
75.252014 -3.803543 -1.5036721
75.86005 -3.1990347 4.432676
75.58836 -2.4616864 -0.91874814
75.15981 -2.1011245 -0.77017
75.81297 -2.061 -0.5383282
75.23011 -1.4679825 0.22396104
75.132385 -0.25155053 2.6897418
75.38442 0.015224516 6.5614786
75.453316 0.21738009 6.9565096
75.457794 0.5844059 7.0831947
75.48388 1.7611943 3.33644
75.45212 1.5130672 7.288595
75.01888 1.6463113 7.547232
75.08409 1.9203482 3.1110058
75.2134 2.3950226 3.603931
75.44015 2.2426984 7.219724
74.943924 3.0680542 4.086436
75.30487 2.9646528 4.4020762
75.028206 3.3505788 5.300971
75.46108 3.2360563 6.3065443
75.56599 2.817431 6.764882
74.92881 3.5469375 5.7561617
75.82081 -5.674179 0.2960637
76.32803 -5.1234884 -0.35714182
76.17865 -5.029044 3.3687215
76.16125 -4.746485 3.958898
76.53378 -4.304252 -0.7338034
76.36613 -4.3190327 4.1079135
76.17936 -3.5698066 -1.0702113
76.05937 -2.6429453 -0.8575631
76.62106 -2.7319677 -0.3792187
75.90985 -1.5938402 0.39484584
76.69205 -1.5386989 1.6231023
75.70932 -0.84531 5.227274
76.0361 0.41877913 6.428349
75.961 0.9757949 6.9393477
76.382614 1.5037054 6.5542936
76.31179 2.4549801 4.8062396
76.514465 2.6363082 5.3767104
76.26271 2.336944 6.490782
76.048454 2.2314875 6.859904
76.06352 2.992008 5.5586243
76.23428 2.7809627 6.0310144
76.69345 -4.965987 0.39046967
76.79775 -4.9897184 1.4733063
76.751495 -4.8762455 2.9143379
76.71381 -4.588574 -0.2546876
77.37662 -4.358225 1.4309567
77.45267 -4.140396 2.4026182
76.96369 -4.348723 3.4481864
76.91016 -3.519281 -0.29056302
77.41418 -3.4013638 0.4556331
77.13887 -3.7329752 3.6613512
76.78856 -2.8183115 -0.24463287
77.56093 -2.9781868 0.49473047
77.554115 -2.7714577 2.6868036
77.315834 -2.4712656 2.968133
76.82095 -3.1569693 3.9130704
77.24837 -2.0301201 0.759472
77.542496 -1.8744948 1.64915
76.555244 0.97266537 5.9356804
76.6796 1.557577 5.619164
76.6394 1.801492 6.1337743
76.59535 2.1205497 5.15275
76.66561 2.1474285 5.4931383
76.60127 2.1189382 5.967304
77.63884 -3.8892243 1.0541155
77.648254 -3.9655042 1.5226789
77.66197 -3.021567 0.7121998
77.85864 -3.3368225 1.3334271
77.74216 -3.361829 2.4439483
77.735214 -2.659621 0.85479176
77.871925 -2.490072 1.40995
77.909904 -2.7443938 2.0545492
77.6573 -2.0854287 1.1553091
VERTICES 1 303
302 0 1 2 3 4 5 6 7 8 9 10 11 12 13 14 15 16 17 18 19 20 21 22 23 24 25 26 27 28 29 30 31 32 33 34 35 36 37 38 39 40 41 42 43 44 45 46 47 48 49 50 51 52 53 54 55 56 57 58 59 60 61 62 63 64 65 66 67 68 69 70 71 72 73 74 75 76 77 78 79 80 81 82 83 84 85 86 87 88 89 90 91 92 93 94 95 96 97 98 99 100 101 102 103 104 105 106 107 108 109 110 111 112 113 114 115 116 117 118 119 120 121 122 123 124 125 126 127 128 129 130 131 132 133 134 135 136 137 138 139 140 141 142 143 144 145 146 147 148 149 150 151 152 153 154 155 156 157 158 159 160 161 162 163 164 165 166 167 168 169 170 171 172 173 174 175 176 177 178 179 180 181 182 183 184 185 186 187 188 189 190 191 192 193 194 195 196 197 198 199 200 201 202 203 204 205 206 207 208 209 210 211 212 213 214 215 216 217 218 219 220 221 222 223 224 225 226 227 228 229 230 231 232 233 234 235 236 237 238 239 240 241 242 243 244 245 246 247 248 249 250 251 252 253 254 255 256 257 258 259 260 261 262 263 264 265 266 267 268 269 270 271 272 273 274 275 276 277 278 279 280 281 282 283 284 285 286 287 288 289 290 291 292 293 294 295 296 297 298 299 300 301
POINT_DATA 302
SCALARS features_00 float 1
LOOKUP_TABLE default
0.5499406 0.58745325 0.5563482 0.63438505 0.5873051 0.5576972 0.5880301 0.3196226 0.6653497 0.7981126 0.39853334 0.6165136 0.7637737 0.51328874 0.72124356 0.5839935 0.5417373 0.5251585 0.6280836 0.6326159 0.5462947 0.6125906 0.63064575 0.74597573 0.7380607 0.69887656 0.69918275 0.6901367 0.6415007 0.64302284 0.6473843 0.60348696 0.5676327 0.5691695 0.46733335 0.73939526 0.7565905 0.8260881 0.8361045 0.7807883 0.82795715 0.5732192 0.55049634 0.5412134 0.5622457 0.573197 0.60773635 0.5975275 0.64145005 0.7503464 0.7492931 0.74737406 0.75210106 0.7475016 0.7240035 0.7353244 0.28583947 0.3519215 0.30185848 0.48614085 0.5105829 0.40141207 0.39619896 0.33055654 0.64452946 0.38855457 0.6991263 0.74473405 0.74464524 0.754498 0.2651381 0.776402 0.45955932 0.623925 0.6728836 0.64030284 0.6248044 0.7438204 0.7378434 0.7327261 0.7365875 0.70868576 0.72057295 0.5973627 0.25687099 0.34538773 0.36172694 0.3120472 0.37462753 0.4482845 0.4358444 0.52913994 0.4454279 0.36911422 0.64157546 0.6408589 0.6020113 0.2960692 0.24388182 0.27569848 0.5928626 0.52667063 0.6217308 0.6464472 0.6187834 0.70052266 0.7062919 0.6683192 0.6468995 0.7387403 0.7252803 0.72037625 0.68539345 0.45492592 0.44392496 0.3815862 0.34136057 0.45086312 0.3707212 0.41355136 0.5365062 0.3648302 0.540722 0.49092636 0.23521069 0.55147254 0.62296385 0.5854778 0.6511433 0.6676925 0.65475917 0.7157787 0.6416553 0.26152578 0.6604246 0.59798145 0.5701104 0.57793957 0.5159274 0.3587132 0.24293576 0.32098037 0.42599848 0.2238126 0.13723306 0.31557095 0.32597527 0.27081573 0.5012854 0.39886507 0.47565457 0.6013038 0.6101241 0.7565577 0.6989316 0.42695886 0.24666628 0.66950834 0.601834 0.74016976 0.7084358 -0.076201245 0.65158296 0.5928667 0.6259595 0.5680153 0.36018735 0.2814743 0.1302981 0.2884035 0.7552255 0.7616002 0.41656694 0.75500536 0.28622794 0.7223854 0.6453499 -0.10257045 0.20433012 0.18162778 0.13509758 0.20027128 0.2983347 0.7294443 0.6689758 0.6526798 0.74866 0.7031163 0.35591263 0.6174083 -0.11025137 0.552295 0.46392965 0.35988835 0.3555048 0.4907744 0.69697356 0.6115689 0.4864709 0.47169536 0.7131274 0.69303846 0.44958222 0.6269199 0.52789885 0.48200598 0.4055423 0.29781008 0.25000906 0.24661158 0.0781891 0.54535466 0.6191853 0.38346285 0.6910351 0.41607076 0.46285287 0.6941289 0.5914727 0.6119397 0.56277275 0.50291306 0.65448684 0.51947874 0.5280923 0.67742 0.5418675 0.60798323 0.628212 0.479762 0.4191511 0.45166284 0.32259497 0.13340469 0.52526206 0.5800265 0.6245773 0.3873965 0.68637395 0.67431456 0.36460423 0.43608338 0.71625304 0.4768312 0.56223726 0.6458472 0.7178205 0.72539383 0.65896225 0.5810426 0.6282202 0.56808496 0.5923538 0.63533354 0.6250263 0.5963934 0.518546 0.55900204 0.4059253 0.57163227 0.3162308 0.61008817 0.66996086 0.7057938 0.668421 0.6882527 0.71252114 0.71921843 0.7003584 0.7051 0.5990025 0.59382606 0.6323216 0.6219259 0.6087489 0.67084885 0.668152 0.5946251 0.59739 0.6898452 0.5706874 0.6001011 0.6982997 0.6894131 0.6809603 0.57844836 0.67235506 0.66556203 0.6703143 0.70123196 0.66664314 0.68776166 0.7011338 0.61053115 0.63275355 0.61087143 0.6394158 0.6826416 0.6168183 0.65383977 0.6809817 0.63099456
SCALARS features_01 float 1
LOOKUP_TABLE default
0.07547697 0.085947506 0.07735769 0.099167205 0.08615602 0.07753724 0.08632227 0.023532338 0.105400845 0.15040076 0.040399518 0.0932113 0.14005566 0.06598946 0.12560368 0.08358078 0.07180472 0.068957105 0.09301669 0.09213935 0.07367786 0.09329578 0.099084064 0.13849345 0.13499445 0.11981792 0.1217178 0.117339864 0.09909152 0.10333096 0.10370299 0.085982226 0.06980947 0.0539837 0.038419742 0.124269314 0.13503787 0.16185434 0.16600561 0.1436031 0.15948337 0.0685069 0.07176985 0.06532492 0.06984218 0.0817648 0.09213888 0.08911274 0.101110436 0.13909307 0.13857971 0.13879022 0.1404368 0.13796002 0.1275021 0.1348565 0.01980661 0.032331616 0.02284555 0.05215555 0.058976587 0.040660974 0.040023666 0.023737712 0.09762306 0.037360817 0.11754203 0.13421308 0.13348213 0.13787186 0.016145442 0.13594115 0.04874466 0.09609499 0.11073586 0.101450436 0.09687465 0.13580044 0.13420253 0.13230017 0.13305353 0.123429306 0.1280698 0.07879992 0.016094774 0.015033016 0.030556472 0.023045592 0.024337355 0.042925917 0.04346708 0.065835826 0.040758565 0.026661478 0.10083326 0.10139891 0.08185491 0.009191199 0.0089714285 0.014756482 0.08494828 0.06549102 0.09272792 0.10204783 0.09329823 0.12072398 0.12289781 0.110130824 0.10323611 0.13293444 0.1292645 0.1275022 0.115991324 0.044472795 0.04190584 0.028193768 0.019480404 0.043429542 0.027173433 0.03895932 0.0700715 0.02517096 0.06981857 0.054428644 0.0106181335 0.067694075 0.09501734 0.081635445 0.10502443 0.109834306 0.10648606 0.12368725 0.09978982 -0.0022154409 0.10714636 0.08781312 0.07912142 0.079568855 0.06342266 0.023126557 0.010014216 0.023769405 0.044487502 0.010087601 0.0013758398 0.024121827 0.024822429 -0.018796228 0.05915758 0.03326042 0.055282384 0.08831954 0.09052925 0.14102025 0.11963776 0.034266762 -0.0064308816 0.10825186 0.08807528 0.13497573 0.12054832 -0.01257243 0.10246886 0.08522307 0.091344155 0.07722475 0.02783003 0.017862543 -0.0022390485 0.011977577 0.14183652 0.14468834 0.040939864 0.14143594 0.01230657 0.12892857 0.1011747 -0.011885275 0.0021974745 -0.0038508868 -0.0012693786 0.0043935836 -0.0146387415 0.1313454 0.11056722 0.10578586 0.13791841 0.12202494 0.029649777 0.09336198 -0.009745705 0.074321374 0.051423885 0.032180734 0.0302085 0.041053943 0.11786919 0.08804035 0.054892756 0.054929167 0.122878276 0.11497246 0.050304573 0.0960146 0.06755877 0.056987457 0.04135526 0.021519918 0.01457205 0.014118462 -0.0104375845 0.072947994 0.0928634 0.036435675 0.11412089 0.042063467 0.048206277 0.11307156 0.074655674 0.0857457 0.07290767 0.062196873 0.096112005 0.06718844 0.06961506 0.10208966 0.07294202 0.08548442 0.095460385 0.056225218 0.04412921 0.049893055 0.025959129 -0.0023083696 0.06668959 0.082089834 0.09550479 0.03688831 0.11561422 0.11093565 0.032770675 0.046720557 0.12541178 0.05536864 0.07712426 0.1003376 0.124630906 0.12804104 0.10236955 0.07651737 0.08888062 0.07963013 0.086650044 0.08915995 0.09582192 0.0806232 0.063815504 0.07174018 0.040568475 0.07961502 0.022461096 0.08899389 0.10986165 0.12128973 0.10708644 0.11600838 0.12395228 0.12646914 0.119959965 0.1213357 0.08138374 0.08280499 0.097558126 0.08584969 0.08924359 0.11124038 0.10980128 0.078312054 0.08254591 0.117182225 0.07435219 0.08470037 0.12130039 0.11800225 0.11350742 0.08056959 0.11065884 0.10371422 0.10664624 0.11979456 0.10635051 0.11490034 0.11992288 0.08922962 0.09790024 0.08878096 0.100044295 0.11585816 0.09137452 0.104336485 0.11470694 0.09673064
SCALARS features_02 float 1
LOOKUP_TABLE default
0.3776645 0.4115625 0.4090926 0.41086954 0.43704838 0.44385076 0.44274116 0.3790763 0.41311717 0.41025347 0.38006878 0.41160643 0.4117986 0.3991474 0.4102965 0.37565744 0.36364168 0.3781008 0.37511587 0.40750024 0.45843655 0.482693 0.50733113 0.43125093 0.4484425 0.4556895 0.41508272 0.44282138 0.45391792 0.3648966 0.391752 0.44776464 0.46264827 0.4614527 0.4443395 0.40975922 0.4058414 0.4073046 0.40925688 0.40921107 0.4077995 0.3698476 0.4468842 0.41927284 0.4338137 0.45370188 0.45356822 0.43909213 0.45967203 0.45016867 0.45697296 0.41948885 0.43479353 0.45504135 0.4654334 0.39896905 0.25798118 0.25684816 0.2515747 0.4123423 0.40685922 0.26574355 0.25826746 0.3368336 0.40638003 0.23763825 0.40493214 0.40533134 0.40202138 0.404755 0.24055955 0.4046104 0.44239756 0.40931815 0.42454773 0.4253704 0.4257747 0.4517967 0.45950973 0.46097887 0.4296332 0.46795568 0.41382426 0.4710092 0.26067203 0.4280163 0.27864748 0.26135972 0.41560528 0.40689322 0.28542072 0.3968817 0.28829393 0.22210234 0.39386463 0.3858483 0.3857455 0.3577139 0.35301864 0.34846616 0.39137316 0.47986436 0.42379823 0.39847958 0.39355832 0.39917547 0.40072408 0.4082175 0.4123428 0.44836485 0.45632634 0.44866812 0.46239805 0.4488753 0.4356975 0.41583723 0.40294105 0.32291454 0.3847415 0.32962692 0.3770176 0.29347336 0.37035716 0.36661243 0.33587766 0.382893 0.38618094 0.3749323 0.3829229 0.39545453 0.43760145 0.46983925 0.46246803 0.4133318 0.38464245 0.43876597 0.44337037 0.38771397 0.41086754 0.37253392 0.34440243 0.32910636 0.3411872 0.315466 0.27762327 0.28916582 0.32847294 0.3191952 0.36205447 0.32963178 0.35790074 0.38173974 0.47164923 0.4915812 0.47319734 0.45364282 0.40620065 0.38851103 0.41159293 0.49801546 0.48108628 0.3315037 0.36415467 0.3908972 0.47462732 0.37328768 0.33838925 0.31350482 0.3080949 0.29904008 0.500786 0.49051625 0.47256988 0.50902665 0.37491137 0.5027321 0.48958254 0.29707837 0.35364065 0.33787146 0.2870512 0.28933656 0.33570778 0.51196957 0.51246226 0.50637263 0.5154705 0.50818574 0.33432943 0.49525598 0.25582194 0.48262215 0.4592839 0.3262504 0.33404905 0.3709223 0.52152514 0.5366178 0.5219692 0.46019635 0.5202243 0.5238397 0.38253915 0.5045524 0.4840465 0.4651948 0.43073273 0.27673542 0.36720264 0.3656564 0.3262895 0.31944937 0.3439511 0.3430321 0.38749617 0.35550046 0.3691789 0.3997543 0.393722 0.53959745 0.5410187 0.49070963 0.52708954 0.433958 0.40016815 0.5167681 0.39011854 0.49985296 0.3868664 0.44727123 0.4299001 0.4281549 0.38498783 0.35494575 0.32115334 0.32984528 0.34162092 0.36755618 0.3690557 0.36413118 0.3509249 0.36870456 0.38818467 0.3750383 0.38869065 0.4003619 0.40735894 0.4023444 0.40370637 0.5359828 0.51852053 0.4664886 0.4416591 0.4968949 0.44106993 0.4824841 0.45333284 0.45625842 0.39745998 0.4137533 0.34475064 0.34910053 0.36228612 0.38110194 0.41133404 0.40968594 0.39774108 0.3926318 0.4065312 0.40457398 0.5096652 0.50633353 0.4898274 0.5008431 0.4914613 0.48811 0.4777531 0.4771768 0.47730976 0.46214288 0.4598564 0.4699386 0.46430904 0.45273846 0.4384386 0.43711665 0.4405536 0.37753743 0.40124395 0.39427668 0.4145384 0.41052204 0.4026919 0.48200345 0.48434728 0.47224426 0.47790682 0.4776372 0.46491075 0.46303254 0.46959484 0.44604266
SCALARS features_03 float 1
LOOKUP_TABLE default
0.03485146 0.04217024 0.041233853 0.041775838 0.04714518 0.048241 0.048265662 0.0333536 0.040746775 0.039925426 0.033466518 0.04034453 0.039799042 0.036357056 0.039092418 0.03500294 0.03230704 0.034663107 0.035245344 0.0416535 0.050337337 0.056533616 0.061578628 0.04534538 0.048570525 0.049737047 0.042354863 0.04751073 0.049495693 0.03283408 0.038147 0.04845002 0.05108263 0.050510675 0.047865126 0.040008567 0.039152388 0.03919535 0.0392053 0.03842591 0.038340066 0.034159724 0.043801866 0.043985397 0.047127336 0.048628222 0.050354477 0.047162775 0.051282324 0.048498753 0.050232943 0.042146835 0.0456341 0.04988387 0.05175566 0.038781118 0.012504116 0.0132867005 0.012579373 0.040557083 0.039599113 0.01465747 0.014310049 0.029441219 0.039325867 0.012304516 0.038825855 0.038695425 0.037813414 0.038475465 0.011393605 0.037681416 0.04777356 0.041497417 0.044330794 0.044749275 0.04500793 0.04791126 0.050468534 0.0510105 0.041948315 0.052383617 0.038660992 0.052815672 0.0120824035 0.043857094 0.014510185 0.012824073 0.041321304 0.03968716 0.015864458 0.037864864 0.016729938 0.01059851 0.036994603 0.035492595 0.034912273 0.029610755 0.028589448 0.029110549 0.037639678 0.055828035 0.0447011 0.039566543 0.038243566 0.039737526 0.039869916 0.041477785 0.04242728 0.04577335 0.048719186 0.045809463 0.05107135 0.04871524 0.04622658 0.042307414 0.03970462 0.020515336 0.03619686 0.022047594 0.03452025 0.01601559 0.032804962 0.03211564 0.026949776 0.036414858 0.03735212 0.035127312 0.036667015 0.039116096 0.045160137 0.05228593 0.049981676 0.032836903 0.028704587 0.046273097 0.04759059 0.025216755 0.04146646 0.03441005 0.022184003 0.026827032 0.028694533 0.015732992 0.011187823 0.020748097 0.026765715 0.020737521 0.032577436 0.026243076 0.03131658 0.036482453 0.05441935 0.05872709 0.05397584 0.0470418 0.029498724 0.032613534 0.040373158 0.060208354 0.055199955 0.00089679286 0.027011039 0.036597237 0.05329653 0.033257715 0.02857047 0.024401408 0.014824642 0.020618157 0.06199582 0.05957556 0.05384554 0.06343928 0.024242919 0.061607637 0.058101967 0.00026246905 0.026227558 0.022741307 0.013491282 0.014879961 0.020323772 0.06470701 0.06530579 0.06398753 0.065288916 0.06349369 0.02120466 0.060257956 0.004101808 0.057276443 0.051536288 0.021042753 0.022251299 0.0263072 0.06709945 0.07141581 0.06804243 0.052917045 0.066647366 0.06766125 0.034306288 0.06292418 0.058421448 0.05396103 0.04632501 0.016941873 0.031377696 0.030998653 0.020365791 0.023489945 0.02686019 0.023667922 0.032397777 0.025885556 0.027782623 0.033681884 0.031035298 0.07204918 0.072389886 0.059762858 0.06876657 0.046336394 0.038390514 0.0662243 0.03616537 0.06217437 0.032360654 0.04991731 0.046118133 0.045409247 0.035511274 0.023160895 0.02326868 0.024637355 0.02654681 0.026832158 0.030509314 0.029652119 0.024538973 0.027919497 0.032998703 0.029300727 0.031659126 0.033391796 0.035134997 0.034737535 0.033873238 0.070813075 0.06614233 0.052979406 0.04715622 0.060695734 0.046099957 0.057627477 0.051002942 0.051023755 0.037671868 0.037601765 0.024097394 0.027073307 0.029423356 0.03191982 0.0351906 0.03558796 0.034240574 0.033630587 0.03513121 0.035048015 0.063334964 0.062038634 0.057790164 0.061364915 0.057997253 0.05664124 0.054130092 0.055469338 0.05477416 0.04896964 0.051621564 0.05289644 0.048200987 0.04407594 0.04173188 0.04502937 0.04351348 0.030642701 0.033854082 0.03356651 0.035648778 0.035482854 0.03475614 0.05568623 0.05603746 0.05319858 0.054155283 0.053067137 0.051173616 0.04971463 0.050539635 0.046105027
SCALARS features_04 float 1
LOOKUP_TABLE default
0.3550583 0.36423838 0.36496896 0.36824468 0.3740068 0.3715951 0.37462786 0.34323168 0.3245059 0.31948504 0.34403986 0.32902807 0.32483214 0.34144372 0.32919848 0.34658498 0.34553838 0.35839683 0.34672737 0.3595305 0.3723175 0.37335506 0.37857676 0.33504146 0.34018368 0.3399903 0.33114615 0.3370989 0.33772415 0.324835 0.33037803 0.33565044 0.33526373 0.33491027 0.3301732 0.31907436 0.31966028 0.31900504 0.32169247 0.32658264 0.3223793 0.3521424 0.384803 0.36301342 0.36270022 0.37215978 0.372145 0.367498 0.37093318 0.34331214 0.34615606 0.3337465 0.33813143 0.34412414 0.34106296 0.32672268 0.32523197 0.32735753 0.3207539 0.33318084 0.33182096 0.3452655 0.3390842 0.3419682 0.3279134 0.31644645 0.32787883 0.32639658 0.32329693 0.32573378 0.32808053 0.32148278 0.37115094 0.3570297 0.36275312 0.3673003 0.36516413 0.3408789 0.3446066 0.3438382 0.3346411 0.34058943 0.33453572 0.33935958 0.3280289 0.3378197 0.3463853 0.33362854 0.33575916 0.3337528 0.35899618 0.3302486 0.36174408 0.31101364 0.32569784 0.3198106 0.3167339 0.3218243 0.32939875 0.33508432 0.34891677 0.36817318 0.3584484 0.34872007 0.3480594 0.34869868 0.35085738 0.35798287 0.35883486 0.3356966 0.33966154 0.33414298 0.33788735 0.33645472 0.33370936 0.33094704 0.33042043 0.37211767 0.32713985 0.37233055 0.3199142 0.36474812 0.31220224 0.31123877 0.32048059 0.34790483 0.33359838 0.32964322 0.33395264 0.34064782 0.33139706 0.39452273 0.39078325 0.3730986 0.3265041 0.33145756 0.33246368 0.33709264 0.32401177 0.3181513 0.3835373 0.30022934 0.3022417 0.3800462 0.364258 0.3053085 0.3153124 0.32518828 0.3205086 0.3097572 0.3204012 0.32982004 0.39368215 0.40236259 0.39290172 0.38952392 0.37271345 0.32097292 0.3244083 0.40543848 0.40013725 0.36188903 0.31662053 0.31910777 0.39638805 0.3161338 0.30562168 0.30141574 0.37914658 0.3003443 0.40699452 0.40313062 0.4023754 0.41127706 0.3794108 0.4067061 0.39900908 0.35322475 0.37749034 0.37139624 0.35434455 0.33503914 0.3152308 0.40965658 0.41075 0.41150388 0.4134603 0.40794075 0.37923908 0.39850926 0.34640837 0.39267343 0.3860522 0.31556153 0.30952215 0.31296024 0.41024402 0.41301858 0.41176185 0.40085688 0.41196358 0.41157663 0.38945007 0.40266764 0.39177683 0.3843342 0.37215468 0.31053358 0.35733488 0.35551232 0.35299236 0.28309745 0.28353244 0.3153351 0.29643378 0.30629078 0.30464196 0.3018542 0.3085598 0.41171736 0.41159266 0.4011023 0.4083252 0.3914363 0.38546094 0.40695673 0.38151652 0.40044707 0.3640746 0.3798802 0.37209707 0.37276798 0.359473 0.3553803 0.29438493 0.28910205 0.28793573 0.32251263 0.2913655 0.28755945 0.32174364 0.31360555 0.2982059 0.30555993 0.30639684 0.30589363 0.30582863 0.30546623 0.30510822 0.40833485 0.404466 0.39217713 0.38809448 0.4022525 0.38385457 0.39770478 0.38452 0.3894566 0.3641249 0.36931401 0.32656223 0.30190992 0.2955924 0.3056185 0.30754855 0.3046424 0.30998605 0.30617934 0.30554384 0.30828214 0.40377784 0.40000677 0.3938001 0.40351397 0.401546 0.39746127 0.39024675 0.40125108 0.4036907 0.38212168 0.39219332 0.39869803 0.3827139 0.37642568 0.37230754 0.3789401 0.37532043 0.31023198 0.31077862 0.3082599 0.30882844 0.30776072 0.30875304 0.40378714 0.4025221 0.3996315 0.4014693 0.39244223 0.39317706 0.38787043 0.38774586 0.38039255
SCALARS features_05 float 1
LOOKUP_TABLE default