# vtk DataFile Version 2.0
Really cool data
ASCII
DATASET POLYDATA
POINTS 12911 float
41.30569 15.901966 54.735054
41.236324 15.776385 55.440453
41.295315 15.845493 56.14957
41.240967 16.882408 53.535152
41.11225 16.506216 54.632713
41.041466 16.251278 55.562706
41.198498 16.341745 56.176876
41.320335 17.53931 53.134617
41.19233 17.503075 53.491287
41.313 17.09686 56.062458
41.320686 17.963825 53.410343
41.300297 18.020845 54.220417
41.811756 15.344318 55.116158
41.812664 15.235552 55.610752
41.75046 15.326838 56.160355
42.1421 16.307444 53.095467
41.856823 16.082392 53.84569
41.482655 15.835343 54.617596
41.533463 15.4349165 55.67644
41.58077 15.593974 56.316174
42.003376 15.816663 56.90676
41.73924 16.900017 52.893677
41.557583 16.461136 53.530266
41.46362 16.30773 56.55879
41.746857 16.375246 56.82303
42.126205 17.85587 52.433086
41.702126 17.55461 52.752296
41.398727 17.54396 55.47524
41.65222 17.219496 56.31225
42.09992 16.889126 56.90383
41.90664 18.126575 52.79328
41.569866 18.33197 53.59315
41.566536 18.233717 54.446266
41.78701 17.719332 55.899494
42.116417 18.791103 53.694927
42.006252 18.736877 54.144573
42.316853 15.221443 54.92243
42.596684 15.013577 55.629776
42.632053 15.075176 56.408768
42.576824 15.292815 56.811928
42.426743 16.261639 53.073917
42.41574 15.959994 53.565872
42.458794 15.456383 54.39904
42.664215 15.819675 57.1676
42.606197 17.076693 52.36613
42.580334 16.769077 52.6746
42.52536 16.345053 57.246895
42.66852 17.42294 52.3394
42.21296 17.521027 52.481148
42.253212 17.534655 56.574768
42.760563 17.111681 57.123394
42.821133 18.112139 52.324432
42.473698 18.388165 52.590847
42.80982 18.567705 55.70493
42.729774 18.203072 56.101967
42.925907 18.884563 52.874195
42.728634 19.014956 53.6643
42.770218 19.07513 54.284637
43.745846 15.40584 54.65428
43.34365 15.0236225 55.601894
43.21078 15.196446 56.64258
43.09385 15.243212 56.84226
43.246353 16.096865 53.208393
43.426632 15.768486 53.635944
43.224236 15.777607 57.211746
43.366337 17.06754 52.383793
43.31574 16.489302 57.306545
43.370144 17.61199 52.288654
43.406414 17.429419 57.0568
43.32846 18.21625 52.31617
43.607162 18.552095 52.489384
43.439106 17.94032 56.490242
43.70295 19.105856 53.077972
43.81638 19.338879 54.286488
43.968716 19.31849 55.15065
44.06247 15.427794 54.49552
44.17389 15.255076 56.085056
44.429543 16.071594 53.67462
44.062496 15.43029 56.724598
44.539795 16.077177 56.83463
44.486347 16.863998 52.95737
44.798138 17.641409 52.397514
44.56917 17.58796 52.63552
44.43194 18.545727 52.644253
44.783096 18.489452 56.385544
45.05398 18.194963 56.743214
44.695732 18.97807 52.87043
44.756176 19.44702 55.51999
44.729523 19.705002 53.796
44.77269 19.859571 54.484337
45.064137 19.63482 55.390182
45.89366 15.688955 53.54047
46.096603 15.496677 54.336067
45.629887 15.512058 55.634995
45.51209 15.884989 56.273903
45.31995 16.254555 56.707138
45.299343 16.647392 52.94584
45.820194 16.644213 56.930832
45.901367 17.426035 57.054638
45.447838 18.551226 52.59929
45.35902 18.016932 56.91011
45.633034 19.13813 52.976074
45.153122 19.583202 55.57632
45.49779 19.30184 55.867317
45.515938 19.883474 53.972805
45.317783 19.9326 54.497047
45.527134 19.803652 55.291042
46.912582 15.113525 53.48839
46.662975 15.093075 54.48379
46.62544 15.416546 55.63486
46.707596 15.808153 52.945686
46.38896 15.529091 53.352764
46.93157 17.066488 57.030186
46.38269 17.538185 57.069225
46.007244 18.297653 52.523018
46.51252 18.568712 56.766502
46.35054 19.121243 56.332977
46.2214 18.815357 56.64565
46.034576 20.007158 54.433933
46.400196 19.74057 55.426254
46.833733 19.679445 55.779243
47.86949 14.65135 54.769455
48.205578 15.107493 56.249657
48.26434 14.498613 57.372948
48.38493 14.682951 58.355564
47.829792 15.96904 52.253036
47.907646 15.51151 52.47109
48.26544 15.522302 57.52022
48.28067 15.232787 58.135082
47.32621 16.763693 52.2177
47.17314 16.32072 56.698498
47.655834 17.433966 57.0416
47.725334 17.876278 52.441338
47.57481 18.6624 56.64968
47.11166 18.778645 52.88557
47.773693 19.545603 53.509686
47.005527 18.790913 56.78635
47.804604 19.815205 53.675766
48.154453 20.0768 54.868446
49.172626 13.143238 57.757595
48.883625 14.079882 52.922626
48.839386 14.041641 53.24752
48.875454 14.079853 53.89944
48.690285 13.558201 57.632816
48.83623 13.743772 58.248432
49.133846 14.141785 59.06563
48.7718 14.689636 52.33415
48.685562 14.484985 52.489502
48.15189 14.744926 54.581284
48.513367 14.473459 58.502594
48.944164 14.590204 59.008423
48.660183 15.443069 52.175053
48.573532 15.259185 58.637085
48.956955 15.398219 59.073708
48.27932 16.724073 52.07295
49.260033 16.693054 59.587
48.401936 17.705463 52.098576
49.02274 17.140081 57.801643
49.199284 17.412813 58.341274
49.19623 16.985466 59.218536
48.560505 18.63556 52.359226
48.850864 18.8559 52.30189
49.171417 19.72772 52.626194
48.338493 18.897821 56.52134
48.459385 20.198889 54.87235
48.63891 20.242945 55.136433
49.226444 21.111244 53.679874
49.012802 21.196835 54.388607
49.305553 21.416943 55.250942
49.333866 21.731121 54.847435
50.335506 12.832976 55.691906
49.584717 12.957505 56.860092
49.620285 12.826978 57.47
49.777348 12.996554 58.278347
50.094078 14.128425 51.964558
49.521023 13.757829 53.35698
49.92488 13.478795 56.02994
49.84885 13.858686 59.212322
49.559105 14.688058 51.973663
49.671993 14.493195 59.42081
49.95277 14.7269535 59.672062
50.256836 16.08424 50.014553
50.080433 15.614397 50.81959
49.59666 16.027367 51.58493
49.402534 15.649896 59.689354
50.363117 16.412233 49.832077
49.87941 16.558863 50.53286
49.842907 16.509129 59.985577
50.28533 17.173515 50.04274
50.11847 17.183022 50.652397
49.55223 17.42281 59.244858
49.909054 17.076658 59.887028
49.18017 18.729315 52.115314
49.93714 18.589651 57.26261
49.565956 17.66439 58.620766
50.095566 17.785093 59.10454
49.956345 19.552366 56.844177
49.80061 21.15019 52.99678
49.613758 21.439583 53.340492
49.493683 21.453102 55.442547
49.76394 21.219568 55.85258
50.32537 22.793566 46.359154
50.266544 22.62181 47.51094
50.361347 22.6753 48.438866
49.799973 21.884163 53.979134
49.670685 21.955261 54.57616
49.825405 21.897776 55.247
50.298077 23.547382 45.82439
50.183945 23.563612 46.44338
50.197983 23.461151 47.343296
50.306538 23.378708 48.205025
50.372135 24.073454 45.839844
50.287 24.194973 46.518906
50.299564 24.197836 47.218674
51.230396 12.013385 55.238865
50.972645 12.052036 56.461876
50.931664 12.067605 57.350876
50.907375 12.315403 58.390224
50.785835 13.024002 55.06168
50.37049 12.640712 56.156956
50.310005 12.496818 56.79477
50.92384 12.493494 58.698025
51.0334 12.718508 58.90327
50.64078 14.043852 51.694813
50.227753 13.595518 53.732433
50.486977 13.824222 59.45859
50.924244 15.220289 50.096535
50.95858 14.325891 51.103848
50.7439 14.521858 59.787537
50.821575 15.828144 49.707752
50.56199 15.541788 60.090343
50.927708 16.624664 49.380333
50.497704 16.48916 49.6527
50.58999 16.642847 60.201347
50.589607 17.294022 49.860134
50.62569 17.248226 59.984352
51.05367 17.83215 49.97934
51.053734 18.097912 50.464104
50.157967 17.939663 58.519093
50.632015 17.785984 59.399216
50.602776 19.704111 52.2516
51.164875 21.125374 47.47842
51.195522 21.114342 48.221878
51.01669 20.14615 52.256374
50.686455 20.750328 56.36235
50.89253 20.230936 56.70846
51.087074 22.049524 45.84738
50.81036 21.871391 46.680035
50.631596 21.925669 47.40506
50.83264 21.740849 48.37295
50.579533 21.36404 52.792084
50.719563 21.316412 56.124893
51.158207 22.811369 45.06182
50.590538 22.938759 45.575775
50.52286 22.416592 46.74508
50.59972 22.716211 48.83913
50.67076 21.809042 53.227436
50.402454 21.91171 53.543076
50.31809 22.226229 54.661827
50.596397 22.168236 55.1375
50.438198 21.857243 55.731003
50.84343 23.486263 45.095028
50.53118 23.458908 45.468056
50.540154 23.725998 48.501038
50.83763 23.251347 49.065533
50.768967 24.014666 45.27097
50.62159 24.377724 45.642292
50.56922 24.72448 46.153458
50.533306 24.349815 47.69824
50.706882 24.215683 48.2466
50.812653 23.8673 48.787327
51.218437 24.907696 45.275818
50.99697 24.98747 45.686035
50.725365 25.021696 46.414593
50.9251 25.117657 47.339043
50.974007 24.946321 47.930958
52.05431 11.230188 55.43786
52.15178 11.177528 56.328114
51.89077 12.198793 53.747463
51.79893 11.685688 54.907
51.656673 11.63704 55.35816
51.666435 11.642131 57.418255
51.724644 11.833207 58.2932
51.82048 12.193736 58.9123
52.172165 12.948404 52.143044
51.386864 13.192978 52.370373
51.807083 12.336275 53.82863
51.40131 12.698204 54.60153
51.41998 12.672174 59.155403
51.587933 14.303592 50.832928
51.527924 13.836126 51.42632
51.62328 15.119587 50.270668
51.21845 14.429168 50.798378
51.586258 14.596812 59.969395
51.31346 15.82402 49.523605
51.059433 15.773631 60.22871
51.378956 16.889019 49.23183
51.264896 17.472294 59.894375
51.505337 18.337875 50.737385
51.485622 18.391573 56.950024
51.321804 17.767365 59.370617
52.17029 20.107817 47.00809
52.295856 19.936846 48.56317
50.938168 19.287008 56.978954
51.780945 20.622875 46.625908
51.44502 20.341808 52.32805
51.57554 20.419218 56.64538
51.964687 22.085957 45.064114
51.38227 21.405327 46.136665
51.509212 21.496012 48.701336
51.57172 21.747965 49.071278
51.821293 21.312988 52.749706
51.271236 21.521458 56.11699
51.621532 22.82463 44.823498
51.305996 22.386925 54.533974
51.53106 22.19299 55.46179
51.761288 22.056314 55.75966
52.111256 23.304276 44.36087
51.43893 23.192703 44.763515
51.605457 24.244705 44.72218
51.460102 24.24416 49.055458
51.788742 24.993818 45.05855
51.41694 25.278713 45.64149
51.916447 25.026968 48.527866
51.85415 24.674969 48.964935
51.752632 25.998241 46.376385
52.26837 27.18152 46.954918
52.35436 27.378212 47.31298
52.979908 10.974889 54.087536
52.76668 10.895095 54.81605
52.624073 10.942627 55.49303
52.662376 10.989643 56.142647
52.57282 11.37233 57.32748
52.81902 11.799271 52.874924
52.400784 11.7511835 53.469955
52.368977 11.639053 58.127487
52.50562 12.051186 58.84724
52.493877 12.913082 51.796585
52.20171 13.059847 59.561073
52.610455 13.68877 51.414497
52.886578 13.526026 59.915874
[...]
POINT_DATA 12911
SCALARS features_00 float 1
LOOKUP_TABLE default
0.76189184 0.8358446 0.8885722 0.8200395 0.8152627 0.8740462 0.8943827 0.8605151 0.87823594 0.8461679 0.8686372 0.8445282 0.7749653 0.82334334 0.86981213 0.7150345 0.70624685 0.74706435 0.84172165 0.88821924 0.8955833 0.785278 0.75675595 0.8924384 0.8819492 0.7827356 0.8211398 0.82571167 0.80199313 0.822003 0.8225533 0.8406197 0.795136 0.7314216 0.79811865 0.7697409 0.7276857 0.7969576 0.8439696 0.86784786 0.68597937 0.654415 0.66514647 0.8691653 0.7187517 0.70856607 0.86384 0.72447383 0.7736375 0.7252612 0.7620914 0.7205836 0.7709239 0.5616295 0.5964978 0.7443576 0.7479812 0.6656914 0.56287676 0.7442627 0.7932613 0.8155248 0.5829805 0.5374698 0.80372477 0.64308256 0.79552245 0.6609289 0.62647414 0.67168266 0.6470381 0.5213437 0.6634432 0.57212275 0.48029298 0.46665728 0.62102264 0.38226387 0.664812 0.5546151 0.53238773 0.5590374 0.57940394 0.57796866 0.3945725 0.40407515 0.5585317 0.421616 0.56757367 0.46561864 0.41544777 0.25134933 0.279761 0.37277037 0.40555254 0.44106966 0.3584856 0.3878912 0.39805233 0.47483498 0.41339827 0.47183245 0.401183 0.3737257 0.47337225 0.43521804 0.39817762 0.31931704 0.3102178 0.23479757 0.2962172 0.28182197 0.3164499 0.35591802 0.37108308 0.3534805 0.35036469 0.35882223 0.39035136 0.3367913 0.29971865 0.23110875 0.20118305 0.42256993 0.47239894 0.2818505 0.30740684 0.4035202 0.45281854 0.2563113 0.22085373 0.23464517 0.17788059 0.29996836 0.22552067 0.28119558 0.33694875 0.31402403 0.33417165 0.48328364 0.298613 0.2876303 0.21886949 0.47118923 0.49993268 0.48160017 0.29432902 0.30998865 0.23997825 0.4802997 0.4810804 0.23032072 0.46875504 0.48808828 0.17713639 0.5865261 0.13233471 0.32872954 0.40547884 0.5458528 0.19656715 0.19862077 0.28010437 0.15035066 0.36587733 0.35280278 0.4586512 0.44865665 0.47727203 0.4947012 0.19432993 0.35613665 0.43143612 0.47048837 0.20582373 0.19944935 0.1979008 0.44227678 0.26268825 0.4562178 0.44966078 0.45028108 0.3356968 0.22598243 0.5303161 0.47792727 0.43140107 0.611568 0.4781821 0.41308117 0.5232419 0.59119916 0.12315619 -0.03333275 0.43920982 0.4896052 0.11428586 0.45483285 0.4921394 0.485081 0.4682284 0.61095214 0.64069504 0.62520397 0.53469855 0.5256776 0.52187335 0.5878941 0.617273 0.62732875 0.57963705 0.57293963 0.5919156 0.588967 0.2242965 0.31474215 0.3983901 0.40476984 0.111494415 0.26033488 0.33834812 0.39343333 0.37340727 0.14280438 0.033699937 0.3901009 0.34219417 0.16135076 0.39943922 0.42889684 0.5120878 0.4815613 0.48347026 0.6176406 0.4890537 0.5874916 0.4462018 0.32420823 0.3679837 0.5118494 0.20974737 0.4373954 0.4551687 0.2614656 0.34033206 0.22861691 0.50135523 0.5309439 0.5765623 0.5833812 0.44135302 0.42534906 0.49452335 0.56519324 0.59945554 0.5984868 0.5091146 0.5411371 0.56337625 0.5452138 0.50697345 0.5315851 0.5651548 0.51692677 0.50037533 0.539209 0.5507411 0.54761535 0.5377419 0.48943308 0.4605661 0.49317038 0.5126879 0.5226626 0.47644687 0.44088513 0.30596578 0.35680664 0.16122127 0.2496783 0.2711959 0.39708018 0.3821243 0.33360198 0.06334459 0.07412793 0.14816184 0.13694598 0.3335384 0.12377758 0.077909015 0.2572821 0.1708159 0.34374604 0.3997962 0.543291 0.4602834 0.5463218 0.15232049 0.028759453 0.45796058 0.09726467 0.14972587 0.13604341 0.23695448 0.23355375 0.21225515 0.3690027 0.4040958 0.49761885 0.52407837 0.3081712 0.40290678 0.43885028 0.54064095 0.4820614 0.43194085 0.37068236 0.46085727 0.45681614 0.3324775 0.4291681 0.46284908 0.24260071 0.24754545 0.3118744 0.19696456 0.23106368 0.266464 0.29330495 0.32145527 0.34342036 0.36744517 0.18462592 0.20552078 0.36433187 0.30360597 0.03718268 0.2577997 0.0019614808 0.1264331 0.06617551 0.68356365 0.72354877 0.23062707 0.27346277 0.7024666 0.32289386 0.42337248 -0.12681976 0.19238606 0.043291327 0.36226022 -0.040861346 0.020895198 -0.0826927 -0.04991115 0.32427093 0.16623057 0.056481894 0.059378117 -0.2451707 0.18182367 0.25025758 0.37536925 0.2704681 0.31943744 0.32343733 0.39463088 -0.1840496 -0.14702217 0.31670168 0.2945894 0.28565556 -0.0548314 -0.07158396 0.2518263 -0.059689753 -0.024970803 0.00023104995 0.33425385 0.25245932 0.004680086 0.030713808 0.39117527 0.37293535 0.26620966 0.24900176 0.251568 0.2295107 0.14754401 0.43194503 0.40823278 0.33076197 0.28522554 0.2856179 0.31484592 0.4533634 0.40980697 0.32424897 0.29280153 0.30263948 0.33971447 0.15706974 0.21063131 0.2447209 0.28136313 0.31255534 0.31986758 0.16672215 0.30764306 0.30321574 0.4258696 0.35472536 0.06445062 0.21323943 0.06461553 0.377078 0.39058405 0.13244992 0.10496396 0.054902542 0.4756286 0.66379637 0.71621084 0.26817924 0.21287692 0.73191273 0.7379851 0.10567328 0.56746304 0.6944681 0.70722055 0.12472732 0.43258685 0.60027015 0.6237667 0.36921138 -0.11263717 0.01840857 0.4515469 0.43321842 0.32878265 0.19209336 0.43790427 0.3963692 0.29279026 0.12123913 -0.16432077 0.2592715 0.09874782 -0.20794593 0.13219912 -0.12514745 -0.14128296 -0.029893212 0.15419441 -0.07034806 0.0001455415 0.11746244 0.23708948 -0.0095128305 0.01002942 0.34565556 0.41627038 0.3522607 0.10639421 0.07753812 0.2117602 0.4675454 0.48618722 0.5102122 0.41824043 0.4181584 0.25050882 0.19043112 0.10035092 0.2674447 0.43728408 0.50295365 0.5375855 0.5250808 0.4912321 0.47528738 0.3008396 0.23274681 0.17528488 0.362752 0.50715214 0.5465052 0.49477693 0.42526627 0.34291956 0.2711925 0.2988978 0.35895634 0.36935478 0.35719508 0.28239435 0.5331 0.4209887 0.34240636 0.361655 0.38035357 0.13673356 0.21914761 0.44414338 0.3351574 0.23356174 0.10174581 0.15802008 0.20159878 0.24586162 0.19469419 0.49734712 0.48091882 0.41641992 0.30900675 0.12652892 0.49427214 0.48100203 -0.06389133 0.2737121 0.48730376 0.43492657 0.45330635 0.53667843 0.7044314 0.33158568 0.73513556 0.7301121 0.6813108 0.6937248 0.49927866 0.5856905 0.6005977 0.4688516 0.46864337 0.42750767 0.19464408 -0.19999701 0.0038169771 0.26558977 0.4469624 0.49588913 0.46061766 0.4656915 0.4320929 -0.20496307 0.353742 0.35708645 -0.027636927 -0.16368484 -0.092739984 -0.21059713 0.04411784 0.20445085 0.30537584 0.09392466 0.34495118 0.18724087 0.4143538 0.32801718 0.49548787 0.47042394 0.41107446 0.41175774 0.51653886 0.48041385 0.46909004 0.300667 0.43153477 0.51011825 0.55894476 0.55387276 0.5327917 0.2803719 0.16301589 0.42826146 0.48613846 0.53086644 0.56861377 0.5617011 0.51572233 0.38455027 0.28982577 0.35141602 0.37085962 0.34043095 0.53865224 0.06190174 0.11814547 0.16526505 0.0738012 0.4612869 0.37408012 0.19912577 0.21640679 0.5157849 0.47619557 -0.06513336 0.134112 0.5113807 0.20920008 0.4191814 0.42612606 0.3591556 0.6361753 0.22800294 0.66158 0.61439174 0.4359733 0.4160178 0.39749935 -0.25225592 0.5528194 0.5547408 0.4562115 0.45942438 0.22662912 -0.016496766 -0.16769479 0.27647918 0.41524333 0.48058444 0.4081199 0.44280985 -0.23294628 0.38980687 0.40741095 -0.15474582 -0.15037885 0.110158175 0.11881255 -0.12813675 0.15484124 -0.10718089 -0.189377 -0.13823593 0.2731887 0.30123162 -0.036867224 0.362851 0.43975997 0.44055212 0.5229761 0.43145424 0.47122705 0.25866356 0.5268813 0.5284908 0.54659235 0.30460307 0.41261742 0.45282835 0.5084959 0.5034124 0.5684752 0.5671504 0.2527526 0.279288 0.301046 0.31442842 0.33528143 0.17164311 0.3925105 0.4550556 0.461739 0.55192006 0.5080248 0.06401209 0.081672594 0.3810929 0.29024935 0.16162029 0.049599387 0.010191146 -0.032691106 0.23729336 0.2684856 0.28048068 0.41474372 0.28320175 0.22615264 0.11246335 0.21704645 0.25009483 0.2632329 0.50183654 0.21810494 0.12710968 0.38315028 0.038133144 -0.14302391 0.39395887 0.57055485 0.03623726 0.4637873 -0.22401142 -0.18122707 0.5686273 0.39034164 0.37848035 0.20941228 -0.23202875 -0.37951517 0.55190194 0.4097572 0.42932564 0.2755442 0.34986812 0.4844045 0.5270922 0.3786716 -0.014062159 0.10648304 0.22427206 0.31567004 0.10332716 0.19937274 0.23333655 0.3230902 -0.06886288 0.14790708 0.2759059 0.30388826 -0.020271588 -0.049876824 0.16108222 0.23789664 0.02370806 0.102531254 -0.030538648 0.30766058 0.05667962 0.3483963 0.4827038 0.29474002 0.5290757 0.5578517 0.04339143 0.46333873 0.5635809 0.5622374 0.12913518 0.24491267 0.20294122 0.19685915 0.35358703 0.39933205 0.4330426 0.5118963 0.45873037 0.34860766 0.3965156 0.44993842 0.4250478 0.39119923 0.26064515 0.3797612 0.46181685 0.40238842 0.33866227 0.07525407 0.14516327 0.34153807 0.27180052 0.19007467 0.23322186 0.2053058 0.1646017 0.0064564496 0.30369863 0.289415 0.34569117 0.30008683 0.28478009 0.22788428 0.29123247 0.25405204 0.18492807 0.18299088 0.036826804 -0.0038817525 -0.010072926 -0.038477212 0.2950065 -0.1166512 -0.10427964 -0.10536525 0.509683 0.3222746 0.12568763 0.47701305 0.24664274 0.27253535 0.3923421 0.45990136 0.25994632 0.12065578 0.25966814 0.14326367 0.25487548 0.0741429 0.31695583 0.280766 0.30011815 0.045493905 0.26535726 0.2933795 0.1490169 0.12905206 0.26659277 0.32047454 0.1817572 0.20646417 0.24508196 0.35224187 0.20043749 0.25881314 0.38610727 0.12458576 0.50438553 0.15766387 0.18806364 0.5649089 0.26037666 0.25831217 0.23508263 0.578128 0.28808317 0.28133586 0.5697857 0.54245955 0.49869764 0.28096634 0.13288835 0.060388602 0.1129537 0.21668394 0.31320688 0.3170269 0.44280362 0.3438736 0.15465967 0.19881043 0.2300964 0.24074413 0.3945256 0.38903016 0.3546849 0.25523236 0.38901907 0.41737106 0.39794242 0.34788662 0.19347316 0.22255439 0.2172279 0.24801281 0.106540725 0.14075133 0.15828201 0.10720017 -0.021361426 0.21520461 0.5313548 0.60447884 0.16989437 0.46727842 0.10222949 0.044159167 0.04762409 0.013720639 0.023755416 0.25405186 -0.05232897 -0.023620222 0.13890386 0.20663102 -0.09884427 0.23065019 0.28410342 -0.075239465 0.020709157 0.18220395 0.2122544 0.16926798 0.067451835 0.61464965 0.07275267 -0.0808717 0.060420536 0.26286405 0.15434039 0.19652052 0.2856893 0.22658859 0.24773213 0.18674275 0.2617838 0.26785606 0.14429507 0.32760984 0.31108028 0.17797217 0.36899644 0.20738077 0.15148579 0.5932108 0.622849 0.65028983 0.46763533 0.35273713 0.14753802 0.462535 0.6005308 0.6457559 0.66727495 0.5015341 0.22038749 0.074361555 0.30574578 0.4246438 0.6095941 0.6669245 0.6917678 0.53876925 0.49008593 0.28991306 0.27890432 0.18683009 0.43925998 0.48841947 0.37931836 0.25484884 0.1726246 0.05059057 0.17108272 0.27249187 0.405391 0.08772226 0.04625502 0.09973855 0.19383387 0.24101804 0.2598396 0.3451814 0.29932842 0.23759575 0.18745565 0.26489866 0.29084998 0.21447329 0.11172274 0.20452312 0.22152567 0.13785309 0.5021665 0.5881542 0.67493695 0.72571886 0.08461596 0.14561501 -0.03846304 -0.110603765 0.37640113 0.49379125 0.5935299 0.67344284 0.7501238 -0.03892853 0.036113173 0.5951224 0.6134148 0.73549324 0.79630256 -0.079114035 -0.09470424 0.5736085 0.69815075 0.78283995 0.03137879 0.025069341 0.034414254 0.17487982 0.55295813 0.011232113 0.04801876 -0.12375959 0.16914634 0.16676913 0.06210134 -0.017626196 0.26478845 0.3039803 0.2970949 0.13280839 0.14318682 0.10641543 0.32631442 0.4024282 0.3347313 0.2688701 0.12152021 0.042154144 0.31104594 0.4080419 0.41728854 0.34425846 0.2779994 0.1285797 0.5238145 0.62779236 0.67107785 0.39644772 0.16517366 -0.01605919 -0.37270722 0.6548252 0.6725247 0.6941031 0.38449752 0.35699737 0.27198085 -0.09122142 -0.07962698 -0.061314523 -0.003509581 0.259467 0.36796123 0.5935079 0.65874517 0.6874056 0.34277147 0.28349808 0.11693172 0.15644905 0.21962178 0.3538741 0.5293283 0.5884572 0.38429695 0.35133612 0.07283507 0.4099784 0.34974864 0.14356318 0.21378422 0.09715666 0.22234747 0.18756339 0.089163624 0.2642551 0.3484509 0.30430827 0.029799443 0.33371407 0.5706433 0.6122304 -0.06660609 0.53917557 0.60111415 0.64394844 0.66927546 0.2591927 0.10356593 0.25481272 0.67867273 0.69729835 0.3385838 0.7100104 0.71851194 0.4062661 0.063279144 0.21167764 0.3062352 0.48609266 0.67815 0.7055274 0.4198572 0.32740682 0.2605151 0.18324941 0.1942321 0.043190747 0.07490002 0.19945115 0.121327884 0.35658872 0.47821105 0.251036 0.22567175 0.18039209 0.15119004 0.045014493 0.04884872 0.08265281 0.13490029 0.24731964 0.21215478 0.15064752 0.20594871 0.24629301 0.19202015 0.21957323 0.2549011 0.16123828 0.2619 0.17306131 0.3618576 0.45335245 0.50134474 0.6549187 0.760643 -0.02835792 -0.3855474 0.27688682 0.79501545 0.82119894 -0.114502035 -0.07850091 0.829703 -0.16588715 -0.154154 0.77181256 0.026929578 -0.036994785 0.69412315 0.19036666 0.19021228 0.16631433 -0.001756344 0.026620552 0.59792715 0.17637901 0.18616514 0.15718077 0.36138982 0.30991828 0.19688004 0.12509733 0.37317553 0.4053501 0.39385724 0.5833765 0.41901743 0.42140996 0.640337 0.6718826 0.4473502 0.4120505 0.69469833 0.4722172 0.4252146 0.041669555 0.6613294 0.69189274 0.42861485 -0.15860963 -0.24156652 0.0067478106 0.3742126 0.48305905 0.5248575 0.45918977 0.44928092 0.12715864 0.19535817 0.2390849 0.43767577 0.4440537 -0.031796627 0.40937734 0.25014007 0.059603393 0.10420439 0.060450554 0.18688488 0.13847348 0.3171495 0.35794258 0.5077501 -0.0007787403 0.08306438 0.58344185 0.60498744 -0.018006226 0.6871394 -0.09643278 0.7171731 0.15532142 0.7020478 0.3115403 0.6250544 0.63670397 0.67250913 0.32537216 0.34256357 0.051669784 -0.068431124 0.011107549 0.2708978 0.4276166 0.5284766 0.31041884 0.3228616 0.31301796 0.22933434 -0.013218416 0.15521078 0.026885651 0.05066812 0.09980461 0.14269164 0.08638026 0.06836175 0.44488844 0.15427732 0.19502956 0.5126587 0.42444855 0.46419305 0.31270903 0.29046652 0.3095212 0.3734991 0.2186209 0.25330877 0.284596 0.292795 0.26982388 0.58497375 0.56069624 0.079612784 0.08988546 0.30951545 0.3804049 0.5684861 0.53680354 0.45062917 -0.012065601 -0.11161898 0.25516266 0.33691752 0.47543624 0.5911772 0.7834186 0.80993986 0.40473095 0.32949555 0.29078212 -0.04099478 -0.02218281 -0.19120312 0.07006665 0.82867336 0.36913958 0.35370117 0.020908553 -0.14344849 -0.13204731 0.8231149 0.1213844 -0.22834148 0.6953665 0.05152771 0.010399878 0.56089973 0.17126569 0.17143407 0.16339076 0.5009136 0.14002228 0.3490042 0.33569795 0.18290323 0.24424839 0.3731805 0.2647486 0.33820227 0.53176916 0.4315667 0.41041532 0.6232744 0.49029106 0.46338058 0.6832752 0.5280607 0.67766017 0.5421975 0.49715906 -0.20823523 0.042110838 0.48516726 -0.017761717 0.12117732 0.27326444 0.33434716 0.42730463 -0.1751061 0.11519762 0.12311432 0.3752662 0.2822695 -0.13379766 -0.25539112 -0.045995675 -0.052458014 -0.0052631497 -0.0905509 0.018256359 0.12947212 0.16807483 0.48558742 0.5840595 0.037899297 -0.051431306 0.6530659 0.5923352 0.15881115 0.21564174 0.6200788 0.32042277 0.32917163 -0.023485921 0.58128744 0.58054805 0.3909768 -0.03902006 0.0339514 0.32522282 0.5420085 0.36804137 0.37628484 0.36143 0.30204755 0.22792155 0.12874015 0.101856 0.1155597 0.21549894 0.42482919 0.5085554 0.31303015 0.26208693 0.22069325 0.24839817 0.49837625 0.5501968 0.5685561 0.5088093 0.4374052 0.4298563 0.37576994 0.5989305 0.59487844 0.6105256 0.5792703 0.63673794 0.654731 0.67199576 0.6459311 0.6875298 0.66354895 0.5488435 0.5768962 0.56160295 0.5162301 0.40735394 0.4931364 0.28501368 0.26760405 0.27539146 0.7327237 0.73144686 0.716468 0.26670644 0.29806718 0.26146388 0.67670953 0.674165 0.67052114 0.6603694 0.6188855 0.15908238 0.6304645 0.6396185 0.60273266 0.54460603 0.4190173 -0.067008674 -0.08613542 -0.066206306 0.036526684 0.13697538 0.5405665 0.5570026 0.36325967 -0.0026469138 -0.04312995 0.2601969 0.43895474 0.7559897 0.4502127 0.061511353 0.754709 0.79004717 0.33252636 0.6273719 0.16131485 0.40078706 0.5359669 0.12598668 -0.07563378 0.42089033 0.5006942 0.41484332 0.28346008 0.18072176 0.51307094 0.36046994 0.45571285 -0.02602546 0.15877187 0.40528947 0.16655263 0.26141456 0.36199608 0.4715382 0.3708637 0.4188938 0.51591176 0.44226342 0.5530735 0.48591697 0.5628605 0.5496825 0.50214154 0.3943454 0.5710034 0.5916891 0.37907517 0.22849436 -0.06229479 0.04531002 0.2519378 0.55575573 0.29119635 -0.101220556 -0.030742124 -0.06106402 0.012127368 0.10840964 0.3913208 0.07953179 0.5617607 0.058680236 0.027899407 0.559836 0.46064356 0.18398422 0.36741376 0.44946748 0.309657 0.44235325 0.3965533 0.40245214 0.19996265 0.37215123 0.4029504 0.37691334 0.34041896 0.28261906 0.5622146 0.60132885 0.6551849 0.73668766 0.60460794 0.42233664 0.33154443 0.61760056 0.6279518 0.68864405 0.63025814 0.6776025 0.5969829 0.6604428 0.6739118 0.69023335 0.7115142 0.6810046 0.7786866 0.78006923 0.7124008 0.73606974 0.73690456 0.65683675 0.4972524 0.58181655 0.17244431 0.792459 0.7835847 0.37882346 0.13296938 0.7816008 0.7647568 0.7490938 0.7390466 0.71892834 0.77445805 0.68160546 0.022430357 -0.08588472 -0.0363079 0.05730585 0.6541462 0.67400527 0.4870106 -0.03871396 -0.047497746 0.12621489 0.2985276 0.59487337 0.2616056 -0.034414824 0.4627126 0.32474157 0.3561045 0.18721081 0.33191732 0.3728041 0.18425706 0.13742997 0.046303555 -0.12157671 0.2328742 0.5663391 0.49302232 0.3366504 0.5666895 0.56313336 0.5484571 -0.24190782 0.4464306 0.07122078 0.12754966 0.19996376 0.26755658 0.19744316 0.25085667 0.4918449 0.31658268 0.30250448 0.51982117 0.44044143 0.45959657 0.5163539 0.46923065 0.55589044 0.44839016 0.29832456 0.5903686 0.08763688 -0.14367506 0.28772497 0.5707598 0.5901236 0.0056147426 -0.45209762 -0.4284008 -0.078276806 0.395822 -0.2254914 0.08898639 0.41627762 0.08586812 0.45503885 0.030752964 -0.011600144 0.34687603 -0.17875785 0.2024442 0.28290775 0.18087792 0.26885015 0.34125358 0.29602456 0.19146423 0.29397807 0.37939674 0.33041358 0.1671604 0.34596798 0.33131322 0.17729606 0.4291741 0.47793764 0.30337703 0.60178995 0.8064885 0.77659535 0.59373313 0.37479377 0.7060447 0.7892772 0.8221575 0.62962717 0.5744325 0.66089356 0.6705441 0.7032968 0.7279089 0.67316616 0.692762 0.7772548 0.8058865 0.7918587 0.73246515 0.74470246 0.661983 0.46733525 0.5878004 0.34548494 0.13514465 0.810706 0.8085158 0.79706067 0.27077386 0.43104905 -0.011955662 0.21330199 0.8463887 0.82911026 0.77514434 0.75339395 0.24169056 0.13047533 0.06500757 0.14560829 0.76914066 0.70803887 0.18459132 0.13128589 0.2585689 0.39655718 0.47788325 0.64733577 0.07221924 0.4309201 0.5145402 0.5955888 -0.0008596843 0.46966767 0.5204038 0.1448123 0.25820562 0.31789207 0.31574798 0.06650841 0.48899415 0.33925784 0.27193642 0.009797824 0.5798975 0.009191589 0.57423955 0.5787606 0.55532104 -0.0656521 -0.11384921 0.48889673 -0.017306242 0.38988507 0.10018663 0.18531525 0.19468161 0.3472015 0.3417702 0.24366853 0.3041685 0.29286796 0.46503198 0.5547435 0.5800911 0.53031427 0.55095565 0.19334926 0.08664702 0.43364787 0.102835074 0.2080278 0.289422 0.018388942 -0.022684798 -0.12121982 0.122428626 -0.14905316 0.082458794 -0.005085608 0.09182407 0.21018146 0.24646932 0.15206191 0.06383327 0.2694805 0.61055434 0.44600463 0.14863522 0.37921965 0.43183544 0.71881163 0.48391038 0.3196066 0.5649011 0.64514184 0.7907964 0.4084626 0.37412694 0.6973382 0.7687312 0.81255126 0.5772831 0.5644664 0.5526527 0.5814633 0.63262844 0.6559383 0.68760103 0.6944141 0.6817093 0.68894005 0.75006616 0.77701163 0.76576865 0.7177246 0.6424949 0.7015921 0.63841975 0.5048079 0.53606063 0.3113789 0.3880639 0.8201183 0.80900955 0.35158518 0.13337575 0.20344508 0.28164613 0.37860003 0.8518616 0.8196732 0.79184854 0.7594366 0.39673963 0.7533901 0.6650113 0.32728133 0.4160872 0.47759354 0.6499107 0.57389045 0.38659838 0.5308324 0.5456444 0.41773134 0.5017449 0.5042719 0.46572983 0.43819022 0.41169065 0.2665217 0.090914555 -0.003707409 0.3077127 0.41643032 0.39371032 0.3366642 0.14751677 0.49018174 0.45143902 0.006594699 0.5612482 0.5277232 0.024405634 0.5659335 0.55604434 0.0037661796 0.523747 0.510059 0.09210198 0.46225822 0.43114674 -0.012760628 0.35556078 -0.09638631 0.061943956 0.2757642 0.24436636 0.12453134 0.2233806 0.3057944 0.26259816 0.2182413 0.3890329 0.4712675 0.06425496 -0.032508545 0.5115028 0.24923997 0.53188145 0.43446133 0.23611788 0.41475284 0.4666615 0.24745831 0.5876918 0.5544735 0.20297584 0.65735215 0.58111084 0.47245586 0.22569981 0.11941715 0.12268303 0.6081226 0.5110896 0.35845867 0.1395213 0.04012139 -0.16268753 -0.039337393 -0.02873635 -0.07753597 -0.130898 -0.08623867 -0.050623506 -0.017041095 -0.048453316 0.061676156 0.14903788 0.07823973 0.12288946 0.6