# vtk DataFile Version 2.0
Really cool data
ASCII
DATASET POLYDATA
POINTS 13046 float
23.478394 14.770247 11.042751
23.453262 14.838099 11.734778
23.458508 14.859004 12.129539
23.455437 15.235513 11.791292
24.252464 -0.9585796 36.90627
24.232327 -1.10379 37.521694
24.285736 -1.124708 38.094616
24.330452 -1.0303764 38.907276
24.23641 -0.4163697 36.711876
24.024527 -0.523193 37.501926
23.949772 -0.28000313 38.419197
24.17677 -0.40856636 39.22479
24.295387 -0.12994151 39.827
24.23443 0.11986929 36.893387
24.00702 0.31441438 37.668194
23.876747 0.5572883 38.51919
23.92978 0.53467435 39.341198
24.17501 0.65657383 39.86538
24.11709 0.92324924 38.04119
24.045824 1.1692128 38.672432
24.068712 1.1701599 39.341267
24.301147 1.0977539 39.892868
24.378036 12.187394 7.8286676
24.162157 12.099672 9.2175255
24.168447 12.718064 7.746161
23.877966 12.744422 8.532112
23.769495 12.833614 9.409946
23.998348 13.170903 11.059532
24.34539 13.235828 7.267578
24.141792 13.511034 7.675455
23.777328 13.495844 8.537492
23.564281 13.590013 9.44483
23.67308 13.360534 10.230537
23.918707 13.76566 11.367259
23.954407 14.11607 12.615365
24.268608 13.963084 12.957894
24.280647 14.216832 7.7679887
23.910574 14.136803 8.487754
23.76782 14.421377 9.592026
23.596516 14.371678 10.53902
23.521877 14.633437 11.550534
23.581467 14.76143 12.428448
23.909391 14.671123 12.995456
24.287905 14.754227 8.693603
24.147148 15.140431 9.929783
23.85951 15.3959875 10.871951
23.603683 15.624052 11.651744
23.613407 15.466249 12.457967
23.91446 15.442087 13.063261
23.943697 15.756045 11.16228
23.858475 15.980591 11.614595
24.058344 16.240103 12.611386
24.1285 16.026503 13.164528
24.9186 -1.700578 36.903553
24.823883 -1.8208915 37.585
25.004198 -1.7957284 38.419514
24.751127 -1.0039266 36.32951
24.541988 -1.1648152 36.66495
24.53519 -1.5347161 37.49758
24.58287 -1.501596 38.353207
24.778587 -1.2643114 39.2295
25.06376 -1.0369656 39.907234
24.72855 -0.49763638 36.169693
24.416254 -0.52765393 36.434265
24.533781 -0.60957336 39.735306
24.682444 -0.19882458 40.123234
24.900345 0.05142398 36.172836
24.602571 0.2842664 36.569477
24.379005 0.67267907 37.290234
24.496653 0.5111601 40.154495
24.843273 0.82370347 36.87617
24.618858 1.1012937 37.596775
24.428904 1.4745762 38.295074
24.318275 1.5740306 39.280636
24.700142 1.3278948 40.021843
24.529572 1.720676 38.751377
24.756207 1.8167769 39.32774
25.29112 8.734092 13.460965
25.30565 8.887366 14.011337
25.088005 9.482332 12.8498955
24.972736 9.650582 13.5508375
25.155277 9.620313 14.387237
25.34538 9.441241 14.797203
25.152967 11.361729 8.130679
24.927208 10.142032 13.509762
25.171133 10.300869 14.423442
25.35103 10.016019 15.01686
24.948648 12.16805 7.1796155
24.573225 11.912069 7.798458
24.492523 11.817082 8.491301
24.667692 11.646387 9.027685
25.030067 12.185019 10.570588
25.218012 12.036489 11.842949
25.4011 11.814492 13.816753
25.407072 11.255489 14.431774
24.663258 12.678303 7.166405
24.426205 12.505222 7.460696
24.347687 12.453774 10.421044
24.706629 13.474034 6.9999785
24.741346 13.838098 13.417529
24.837402 14.13697 7.094987
24.598742 14.393869 7.4799123
24.431892 14.906369 13.633094
25.148682 14.951311 7.606557
24.697577 15.12205 8.6423435
24.674253 15.533229 13.909969
25.053616 15.7747755 10.162624
24.38606 16.159626 11.134085
24.59014 16.488487 13.464633
24.940031 16.404032 13.963208
24.968702 16.887503 11.922876
24.855644 17.003256 12.576688
24.890537 16.949991 13.338089
25.034275 16.780788 13.803823
25.881979 -2.6256824 37.725285
26.10044 -2.7714472 38.15542
25.909689 -2.0012524 36.22545
25.689665 -2.0258362 36.731102
25.355844 -2.1099384 37.748318
25.664352 -2.2936575 38.48814
25.780355 -2.1307268 39.23868
25.32899 -1.3958079 36.193886
25.251749 -1.4539528 36.334526
25.374584 -1.5328276 39.634907
25.667019 -1.1791619 40.07282
26.22481 -0.30481607 35.291367
25.537357 -0.3738111 35.78248
25.381744 -0.5474024 40.4818
26.08525 -0.20548247 40.74919
25.474094 0.34237793 36.032078
26.25799 0.9326644 43.472343
26.3906 1.1203027 44.407482
25.806799 1.0372348 36.664078
25.798555 1.5260112 37.809303
25.983744 1.5762128 42.68124
25.921608 1.837296 43.53623
26.248713 1.6097806 44.2421
26.26545 3.0767782 11.731075
26.22984 3.149487 12.343332
25.27078 1.6804994 38.079224
25.106777 1.8793749 38.959274
25.373762 1.9302497 39.24401
26.131702 2.0256212 40.301357
26.028193 2.6184258 42.73367
26.018066 2.4443629 43.688354
26.184988 2.4142354 44.190857
26.33061 3.7574584 10.995603
26.093895 3.620784 11.6729555
26.07439 3.5786552 12.398609
26.256147 3.5371094 12.903839
26.450022 3.0094795 41.495544
26.237537 3.1654975 42.740795
26.269989 3.3412268 43.327923
26.345573 3.122057 43.89859
26.370564 4.4687166 11.066789
26.093857 4.2847214 11.680825
26.026255 4.126606 12.454429
26.313408 4.2297916 13.052262
26.123795 5.1257453 17.882147
26.090849 5.09815 18.548859
26.43213 3.8890164 42.17153
26.254427 4.8280487 12.355909
26.289644 5.785966 15.930019
26.30794 5.5321875 16.28527
25.90227 5.7447777 17.62836
25.87914 5.588727 18.522877
26.096575 5.556923 19.082188
26.465014 6.0051947 40.65528
26.427353 7.0182824 14.797781
26.158524 6.4180465 15.946172
26.093176 6.4723396 16.495945
25.94195 6.294394 17.796883
25.927324 6.2798276 18.449888
26.09044 6.159836 19.03977
26.392239 6.581681 40.64199
26.418476 6.613871 41.083042
25.68756 8.281825 13.020091
25.901205 7.857389 13.324098
26.22471 7.404219 14.55012
26.26402 7.200293 15.551537
26.17896 7.319326 16.423046
26.284498 7.100103 17.44362
26.26767 6.9511957 18.43422
26.325829 6.859128 18.821842
26.416115 7.108128 40.76626
26.132063 8.635566 12.188849
25.683216 8.570484 12.685509
25.453407 8.554702 13.3407345
25.774336 8.412731 14.504388
25.650087 8.862338 15.052509
25.751257 9.705598 15.335816
26.10145 9.145117 15.664641
25.787474 10.999049 8.573014
26.416641 10.403901 9.717628
26.105223 11.044784 10.124292
25.679298 10.396103 15.217892
25.486965 11.859231 7.1905136
25.596691 11.495688 7.3930845
25.321081 11.597583 9.623722
25.552567 11.43559 13.979855
25.819569 11.369376 14.968215
26.188423 12.30909 29.763355
26.226603 12.295926 30.15351
25.496105 12.811765 6.733985
25.748373 12.58236 14.0633955
26.098349 12.282046 15.019907
26.242794 12.717171 28.953682
25.981047 12.768634 29.614164
26.064867 12.680094 30.242342
26.280792 12.817435 30.802547
25.511993 13.606957 6.670433
25.741472 13.313208 14.254782
26.238434 13.414787 28.811003
25.967564 13.37579 29.609665
26.00555 13.361244 30.247795
26.228193 13.293518 30.77051
25.650091 14.191782 6.773347
26.215656 13.940078 29.632402
26.24792 13.931832 30.158901
25.518494 14.852156 7.178607
25.488152 15.213421 7.725658
25.518919 15.559694 9.592521
25.636963 15.461375 14.446485
25.67265 15.578137 14.585606
25.996702 15.708809 8.000946
26.199598 15.904972 8.429635
25.43298 16.215076 10.8282585
25.435465 16.44419 14.185299
25.218037 16.662058 11.651169
25.41364 17.32107 12.640929
25.442833 17.262455 13.426852
25.504232 16.90719 13.971432
27.4556 -4.0082254 34.846497
27.337124 -3.6801674 34.985725
27.253462 -3.3217351 35.219437
26.714449 -2.7682998 36.544582
26.513968 -2.869861 38.350418
26.58435 -2.6238804 39.041447
26.840057 -2.1266465 35.273197
26.577444 -2.315048 39.615173
26.836515 -2.0329266 39.914745
27.143324 -1.1836606 34.329605
26.692856 -1.5035617 35.07688
26.95656 -1.5695215 40.296997
27.223738 -0.8745618 34.28957
26.78292 -0.2474994 34.78323
27.082905 0.13604468 42.78603
26.943989 0.22789331 43.685806
27.151886 0.14347854 44.59305
27.243172 0.22501934 45.12626
27.022923 0.13065591 34.80961
26.314985 0.31243932 35.593307
26.726004 0.4635337 42.04296
26.675148 0.4182107 43.667095
26.812176 0.5995246 44.548294
27.024761 0.7451104 45.29794
27.300667 0.82019424 45.81556
27.132193 2.2460523 11.533925
27.225933 2.1910758 12.014968
26.767368 0.85635746 35.602272
26.273035 1.2634985 36.829346
26.432117 1.7215099 40.85147
26.510729 1.4201789 44.62182
26.67605 1.6347402 44.994038
27.002077 2.6697598 10.765507
26.700645 2.6251526 11.524654
26.650383 2.7307825 12.310124
27.030762 2.8714054 12.933373
27.077612 2.1902246 37.80176
26.272118 1.897057 38.382626
26.5386 2.5045428 40.83334
26.418846 2.186804 44.540615
26.763393 2.1498272 44.966415
27.154331 3.9581108 9.519992
26.707851 3.7760363 10.389854
26.69946 3.596791 13.168065
27.152826 3.5198398 39.624157
26.613516 3.4935808 44.066254
27.38039 5.11991 8.149886
27.059546 4.9860654 9.027054
26.972286 4.3709846 9.71997
26.469982 4.0542703 10.879944
26.600304 4.2459645 13.146561
26.64462 4.987167 15.958529
26.844648 4.7527223 16.725346
26.577711 4.7802052 17.624289
26.65927 4.7113867 18.407902
26.526117 5.047483 19.176168
27.258497 4.0911117 39.654606
26.924076 4.741211 40.388268
26.751266 4.469986 41.76434
26.684853 4.243845 42.32394
27.090702 4.316199 44.286186
27.377073 5.859488 7.1605873
27.205545 5.8870735 7.311756
27.115736 5.4113736 8.561291
26.992624 5.9372063 9.270344
26.452019 4.894893 11.447785
26.522455 4.858792 12.646128
27.221272 5.6565537 14.544294
26.472261 5.454663 15.54089
26.437838 5.564149 19.427807
26.733013 5.707688 19.623552
26.549576 5.940239 40.42923
26.757362 5.6719103 41.11124
27.15649 5.0590377 43.62151
27.24529 5.0654745 43.941715
27.336824 6.6464887 6.721067
27.072006 6.5442615 7.6028414
27.005825 6.045468 8.64217
27.124605 6.149741 9.351982
27.123762 6.817756 12.721221
26.42838 7.232213 13.394273
26.768885 6.622382 14.53672
26.586344 6.237602 19.495453
26.766014 6.107795 19.613743
27.384521 6.430546 38.855904
26.75069 6.6169715 39.721066
26.58172 6.6173987 41.556908
26.698792 6.4980135 41.919155
27.143148 7.2903423 7.1291122
27.024454 7.0957336 7.479655
26.974522 7.6322308 8.133173
26.987474 7.8527904 9.2373905
26.777405 7.3644757 18.501526
26.822056 7.0854983 19.033855
27.211828 7.300099 39.048912
26.837877 7.351511 39.73575
26.621506 7.4909973 40.44152
26.560888 7.4428673 41.172318
26.97984 7.549655 42.317215
27.261398 7.519185 42.762833
27.398457 7.9986415 6.926099
27.16041 8.183973 7.485756
26.95338 8.354787 8.565365
26.79431 8.865652 9.619949
26.931553 8.42223 10.653113
[...]
POINT_DATA 13046
SCALARS features_00 float 1
LOOKUP_TABLE default
0.51763636 0.5477144 0.56296587 0.5704855 0.6754477 0.67101264 0.65358746 0.61726934 0.6960411 0.7427211 0.7816127 0.69539034 0.6906762 0.7027751 0.7633188 0.8034368 0.80011487 0.774287 0.72201324 0.7391372 0.7533507 0.7338381 0.57838297 0.50227153 0.6103066 0.6110936 0.56968117 0.41608775 0.61680603 0.61702585 0.61678505 0.5614233 0.50122654 0.45162237 0.48875916 0.44112885 0.5701222 0.57088727 0.49539706 0.4974714 0.5276102 0.56363034 0.5574751 0.44827583 0.41442907 0.49716341 0.57553697 0.6169775 0.63111746 0.52005893 0.58687234 0.69386804 0.6747663 0.5780311 0.5693028 0.54188037 0.62095964 0.63950264 0.6106299 0.58687246 0.5544926 0.51276195 0.61685455 0.6619505 0.6101322 0.6201743 0.5776732 0.6273043 0.6713561 0.7185758 0.56566256 0.60619324 0.6431773 0.6878572 0.64459974 0.6335511 0.60021067 0.37966567 0.3976714 0.41558927 0.4407254 0.4149324 0.40028298 0.4427063 0.42536703 0.3766539 0.3619429 0.5595395 0.55266446 0.5104666 0.41283637 0.27434775 0.13795532 0.20046626 0.27989072 0.5948668 0.59765595 0.39181936 0.6107733 0.33431607 0.5784747 0.54601926 0.5469272 0.40934 0.3449167 0.583627 0.2266261 0.4753936 0.65260935 0.5734414 0.5321553 0.66320693 0.6494843 0.58657676 0.4443034 0.43517488 0.4220954 0.47361195 0.5153625 0.48907268 0.4779468 0.547529 0.5591766 0.48772636 0.43965352 0.32244352 0.48602253 0.4571089 0.30621228 0.45875543 0.49260542 0.5126565 0.3581465 0.35863876 0.48566407 0.48051617 0.5033249 0.75360787 0.7890647 0.47541472 0.52032363 0.4507725 0.11420946 0.34178317 0.4475788 0.4676956 0.59988904 0.7255473 0.7778741 0.79270923 0.053086057 0.28345948 0.35158804 0.40339234 0.53691113 0.692515 0.7583804 0.763953 0.81039506 0.8764635 0.13387942 0.6910118 0.40577596 0.51615906 0.74506164 0.8469424 0.81485337 0.3330415 0.15691587 0.35719284 0.4582991 0.6982864 0.742746 0.7364739 0.38919622 0.3832546 0.30896533 0.25360912 0.16411464 0.23561771 0.37941283 0.54425204 0.619202 0.63766205 0.4165678 0.23756704 0.316199 0.3542165 0.33134288 0.36844757 0.34346882 0.28279763 0.2446919 -0.00859049 0.045793086 0.31481364 0.50326276 0.46098247 0.24255094 0.25877312 0.22891206 0.9534892 0.9648963 0.5444747 0.102979906 0.12091194 0.92780244 0.9750606 0.9909932 1.0 0.5629458 0.0903391 0.9085773 0.9812756 0.99970806 1.0 0.5254828 0.8932774 0.9219537 0.4273523 0.3267284 0.1294137 0.42256907 0.41122007 0.20049821 0.13124643 0.20646018 0.4936163 0.41178185 0.5869356 0.5733633 0.5024715 0.4072264 0.36857194 0.3198452 0.25661257 0.41062015 0.42045736 0.25979024 0.4023512 0.3524047 0.2960523 0.31699842 0.30526936 0.27885354 0.25869238 0.3725459 0.45923606 0.5019848 0.52518195 0.22777474 0.28324 0.2884379 0.4708708 0.5131353 0.53409946 0.53900355 0.68419415 0.7058263 0.1817217 0.23087747 0.084691666 0.51594174 0.5136305 0.59817874 0.7181557 0.77077407 0.7571607 0.0018592458 0.21868898 -0.03974551 0.48659325 0.48895967 0.28196585 0.44725475 0.78090334 -0.11624449 0.3681452 0.27293086 0.23721212 0.27710932 0.537247 0.75363666 0.54140496 0.5647168 0.68821836 0.79698247 0.835306 -0.040372685 0.09341413 0.05838909 0.15627617 0.29162577 0.3330354 0.31866604 0.26113153 0.21812508 0.55780137 0.6684644 0.13267301 0.3783949 0.7577015 0.6842847 0.33294097 0.25464943 0.20332167 0.20730126 0.35288513 0.28281984 0.25148836 0.20659694 0.048519798 0.13172047 0.12890717 0.655656 0.6373514 0.32828426 0.38488352 0.3629881 0.3301591 0.30417833 0.27998188 0.20923296 0.08138861 0.54382133 0.57469356 0.31021345 0.37494302 0.41508883 0.41695476 0.36252397 0.31439278 0.27332318 0.22133763 0.10022459 -0.09837106 -0.18663882 0.12062556 0.29784834 0.40223163 0.4839619 0.29640204 0.384485 0.3766112 0.31163576 0.10263135 0.046646357 -0.09800431 0.036313508 0.13983895 0.5589551 0.5489965 0.47153425 0.4327742 0.17910136 0.016219884 0.22068645 0.3839147 0.39390248 0.3800782 0.6677884 0.6786505 0.6385239 0.5617291 0.4841981 0.30736113 0.20003225 0.7852597 0.84957355 0.89373535 0.93178785 0.9401065 0.44891497 0.5093545 0.5623745 0.6904647 0.6862606 0.65714526 0.61278963 0.54263914 0.35679883 0.07139052 -0.019124493 0.75906926 0.80335784 0.85645616 0.97772133 0.9974853 0.5539249 0.64521384 0.7075461 0.66527 0.6513728 0.636814 0.37392735 0.333078 0.09188851 0.0059656147 0.72879636 0.7992104 0.8257986 0.9996545 0.6911569 0.7152332 0.6945344 0.71061146 0.73597634 0.7754512 0.84727776 0.9247029 0.28225368 0.637021 0.6466259 0.73058116 0.16070278 0.15888408 0.10875641 -0.0037051109 0.3258714 0.1801633 0.16490397 0.10752559 0.03259413 0.14430653 0.3576007 0.38353038 0.35435373 0.27039528 0.56467336 0.5001277 0.45585278 0.5475719 0.4656056 0.40473157 0.3376023 0.48294365 0.48403925 0.32325155 0.29945138 0.29972842 0.3090375 0.3564778 0.34342694 0.24420768 0.39926794 0.45631593 0.47576416 0.44802976 0.25752577 0.10079018 0.42417276 0.4827892 0.50915897 0.45425445 0.24893522 0.34019735 0.44550198 0.46739978 0.51828426 0.5347712 0.45788485 0.5048754 0.49849275 0.45054764 0.20113176 0.19343922 0.53943664 0.5420425 0.40321183 0.5428027 0.6482136 0.68243504 0.44477904 0.47016153 0.45087603 0.41392094 0.16414057 0.07426729 0.5303894 0.25388318 0.36730912 0.48934752 0.7063128 0.70357656 0.4126076 0.40479416 0.09775571 0.07729028 -0.0789367 0.43050772 0.19970714 0.6820226 0.41987413 0.08985673 0.058937926 -0.13186742 0.2933436 0.42768526 0.37311286 0.2632777 0.24235383 0.55295247 0.4116937 0.4270838 0.5110985 0.588457 0.80122244 0.08488311 0.2630102 0.47991133 0.4591353 0.39405608 0.51762795 0.3063371 0.19949715 0.2179894 0.26400194 0.25833493 0.48484483 0.4537159 0.41098604 0.46409118 0.25199527 0.30331218 0.16840418 0.27194655 0.27631062 0.40468007 0.2908832 0.5109132 0.4247011 0.22152093 0.263228 0.2331618 0.2992631 0.29492438 0.3513394 0.34343937 0.31680322 0.17672735 0.44093484 0.20617262 0.25611183 0.2614028 0.27029562 0.33483815 0.36522114 0.37204722 0.33250418 0.28244346 0.1139667 -0.019464716 0.2633605 0.23757915 0.27224755 0.2507028 0.24161619 0.19822802 0.56018454 0.41064897 0.37839693 0.2712295 0.08305392 0.051622786 0.36601967 0.33948988 0.19995871 0.52376676 0.6462891 0.40376088 0.35886675 0.16142187 0.10567312 0.31164294 0.68248636 0.70883036 0.7033305 0.791214 0.82752573 0.8750875 0.3918029 0.45243132 0.60455143 0.50047815 0.66486704 0.5242484 0.23076087 -0.0069659203 0.075180575 0.30419916 0.70509666 0.8959042 0.42553002 0.54751694 0.65979373 0.6503111 0.6381955 0.63052917 0.6060419 0.5699026 0.18854477 0.23767237 0.68705595 0.92453283 0.9069686 0.60758483 0.6772469 0.709564 0.6808003 0.54555 0.2577811 0.5890366 0.6450236 0.7740721 0.8286577 0.6098747 0.6572789 0.6767608 0.67103434 0.12828347 0.5867269 0.55550075 0.6142318 0.693905 0.7250439 -0.12831727 0.14780182 0.17599553 0.14677222 0.24437366 0.28702646 0.3137206 0.36242652 0.35287634 0.47307134 0.49090153 0.4926702 0.5129447 0.5079143 0.46413165 0.5560791 0.5818267 0.57317406 0.53616714 0.6114484 0.5728462 0.60464597 0.5877711 0.5306126 0.48979923 0.39497152 0.55559176 0.26578134 0.44055578 0.22201075 0.23701891 0.24330252 0.28790203 0.28887343 0.27410525 0.26537877 0.18872656 0.30208817 0.35155183 0.3929941 0.42316383 0.39930093 0.32106692 0.27224055 0.22362483 -0.0010908172 0.3805377 0.36356997 0.39215428 0.3960222 0.35605904 0.2959368 0.17811365 0.22241974 -0.13467175 0.4518544 0.4602899 0.4915845 0.4004476 0.39409727 0.40057635 0.39128605 0.35509253 0.124926865 0.498702 0.2699086 0.33835125 0.45225543 0.60869944 0.6292797 0.40131488 0.4254465 0.38497144 0.29850715 0.06486595 0.49667546 0.5459785 0.59918034 0.23402178 0.31038827 0.58912295 0.39173368 0.43226343 0.33274716 0.2519682 0.36427066 0.35550642 0.47748327 0.545285 0.23643422 0.17598355 0.5360857 0.5721834 0.26710927 0.38338625 0.42457217 0.34421286 0.23638694 0.07994441 0.16307352 0.31991473 0.45076007 0.45759895 0.43302467 0.38038102 0.27982694 0.20126387 0.24730736 0.33942902 0.39159846 0.018990617 0.2125803 0.22759347 0.21763162 0.25181094 0.31587747 0.48341003 0.45182034 0.22396062 0.12367473 0.2554193 0.26436687 0.23725033 0.22375336 0.4917202 0.2100953 0.16210039 0.26183674 0.12210517 0.07843493 0.25629073 0.2615907 0.2398521 0.41640115 0.29736853 0.11055056 0.124324515 0.14782856 0.2037336 0.28961083 0.33191532 0.2777561 0.114250004 0.17120576 0.27433068 0.22754082 0.20547947 0.17035058 0.37758827 0.390445 0.21526542 0.074992575 0.06611471 0.2387431 0.30003 0.10334282 0.13192247 0.39860356 0.18326388 0.35408175 0.41159284 0.10271426 0.37777245 0.36436516 0.5988292 0.6012468 0.6295881 0.6399343 0.72600865 0.30231524 0.34545898 0.39660737 0.5093875 0.34132144 0.45618522 0.50889 0.17918006 0.40513968 0.3890524 0.36741942 0.6052252 0.73019314 0.44561237 0.5111535 0.536729 0.44058266 0.52073514 0.5568574 0.10604665 0.31380397 0.39388418 0.40576124 0.3907199 0.46229023 0.54437965 0.7630139 0.7985358 0.46761817 0.55323493 0.57726496 0.5570682 0.5148089 0.4832581 0.51944214 0.20495759 0.024891097 0.052231193 0.2081419 0.32372934 0.39448982 0.5379121 0.7391332 0.5680131 0.61118734 0.6161207 0.6354574 0.27916476 -0.19041955 -0.014096715 0.048862137 0.16078778 0.41779444 0.48541656 0.5156607 0.50178206 0.52391624 0.55272657 0.5615591 0.5701832 0.32570666 0.2304576 0.17417558 0.33994377 0.3338597 0.27308592 -0.066349484 0.13859221 0.35723478 0.4331627 0.40643412 0.45339513 0.25731426 0.43163946 0.51922244 0.5168103 0.47810596 0.53191745 0.40888566 0.3153968 0.5299454 0.5758912 0.6162478 0.58244157 0.55937225 0.5116695 0.76192564 0.68905616 0.7224504 0.7187997 0.640932 0.62872434 0.58672863 0.5463982 0.526788 0.4503367 0.3706286 0.38616842 0.37023616 0.30102387 0.28709254 0.2850108 0.28220075 0.63540184 0.6459367 0.6221918 0.5565409 0.4776857 0.19082277 0.27010208 0.26535437 0.5904075 0.41732547 0.28279585 0.2803604 0.17875892 0.17644906 0.19614038 0.16393118 0.5182575 0.5511899 0.15391298 0.2508811 0.21316212 0.20343605 0.17137025 0.1016511 0.057017654 0.22363402 0.21346846 0.19935578 0.30726457 0.2678256 0.23042062 0.05904948 0.30517226 0.29422098 0.37887323 0.30322152 0.25341094 0.24547866 0.18152063 0.14142603 0.103027105 0.44302592 0.4298417 0.2257599 0.15727761 0.35192466 0.42491323 0.41836512 0.24453892 0.3364242 0.31902045 0.62605166 0.64549774 0.6486529 0.2877524 0.31932205 0.41887948 0.56085706 0.5265976 0.39865774 -0.010037772 0.4066537 0.40399233 0.32794142 -0.1974008 -0.062431302 -0.037975702 0.49829465 0.5673901 0.6354301 0.6445339 0.20473559 0.23316765 0.500924 0.3610397 0.3333461 0.2017333 0.065444335 0.43700713 0.3766806 -0.04995233 0.13177216 0.36351997 0.5872832 0.35268122 0.47226048 0.3433373 0.19472423 0.18079665 0.12857033 0.43488073 -0.077205755 -0.12603536 0.0846454 0.32259953 0.39203155 0.43279055 0.44020683 0.45447323 0.40576783 0.4290759 0.0842126 0.11372123 0.14832282 0.023992602 0.25778553 0.17480645 0.20431699 0.21264565 -0.1056809 -0.06234124 0.059199456 0.20416805 0.33638686 0.36257058 0.17814451 0.22561996 0.29193336 0.4159562 0.4803313 0.16734639 0.13178925 0.18599267 0.24848756 -0.26258594 0.12803312 0.3497506 0.40200013 0.13266222 0.18000177 0.22728774 0.28424764 -0.09822527 0.010145212 0.2859947 -0.29480398 0.0774174 0.27076986 0.2552754 0.06568486 0.02056352 0.14220238 0.12616813 0.24479046 -0.2443233 0.02909611 0.035791717 0.1246747 0.079955325 0.21952462 0.3404872 0.2890911 0.15103617 0.07463739 0.056348495 0.1814638 0.41146594 0.4644389 0.03952721 0.31952 0.33506888 0.48753405 0.38851443 0.42501172 0.49651787 0.20867257 0.054891594 0.03846508 0.17478642 0.5364621 0.10412793 0.3800113 0.33979517 0.3754532 0.50863963 0.5257796 0.24755536 0.27598614 0.37517643 0.55990714 0.55483437 0.36901525 0.34364966 0.4990931 0.42354453 0.3996681 0.43264377 0.36981142 0.37707078 0.4670151 0.51099026 0.5176629 0.3459713 0.2793392 0.346591 0.3075022 0.538802 0.33171615 0.45407447 0.49797025 0.5718854 0.31118476 0.2681814 0.2337742 0.21435471 0.2912021 0.26947787 0.4227616 0.30317524 0.299817 0.29235855 0.5769804 0.5950509 0.5593798 0.32991827 0.33702728 0.36826256 0.27996817 0.20396936 0.55101836 0.5877902 0.5998738 0.5810995 0.35287473 0.33309352 0.44635043 0.5891731 0.5961881 0.291171 0.26438755 0.033605263 0.2761139 0.38537702 0.5638786 0.56667906 0.6154593 0.42676586 0.34905338 0.46049386 0.5197607 0.6146456 0.6366346 0.5140272 0.51530254 0.5770859 0.5590821 0.5412775 0.52296937 0.53396595 0.8055781 0.8039707 0.77697605 0.7869294 0.77852726 0.7552026 0.72144055 0.7569465 0.72346354 0.705289 0.63215303 0.59219956 0.44765198 0.5582148 0.41516498 0.32970068 0.6100062 0.62050253 0.5922871 0.24406679 0.22448015 0.2802861 0.25043204 0.64427173 0.5521047 0.48736846 0.40170687 0.39286822 0.3419579 0.29787657 0.2233425 0.26210362 0.24644932 0.5043299 0.24867769 0.36467057 0.3375398 0.21022445 0.19895487 0.20955235 0.16728954 0.4929053 0.13310176 0.32869664 0.23895298 0.08872964 0.12184478 -0.010932013 0.3229778 0.3465513 0.35973734 0.3018948 0.16688044 0.013619611 -0.33784744 0.061006084 -0.35364637 0.26076797 0.31797817 0.28549463 0.18204163 0.44875592 0.42567965 -0.19162205 0.182587 0.26281488 0.29156774 0.449138 0.45555735 0.0090750605 -0.05865895 -0.21746224 0.23802873 0.30453688 0.3142877 0.44054008 0.44481125 0.22955698 0.21069378 0.1964548 0.21837886 0.6093114 0.6049938 0.59521496 0.27668425 0.25896984 0.3409456 0.3657985 0.3727987 0.24183781 -0.072579704 -0.25096628 0.621602 0.56471646 0.36302823 0.26329374 0.28501275 0.36946565 0.353685 0.23506826 -0.010063134 -0.352089 0.58015853 0.17191404 0.21303561 0.02111213 0.4157884 0.4183888 0.39476985 0.24845129 -0.2585231 -0.34138265 0.3463583 0.38170838 0.028870845 -0.010646498 0.23888585 0.20346922 0.36244765 0.3665014 -0.03036601 -0.105016194 0.28524733 0.41992238 -0.17255166 0.2312731 0.24093558 0.06396015 0.3875236 0.16214408 0.16597965 0.0075854734 0.11256929 0.17910923 0.27337763 0.074958734 0.1767315 0.15858579 0.0733141 0.012168646 0.06327761 0.07194141 0.1730527 0.3184289 0.10470176 0.06765732 0.08845102 0.17268725 -0.0038705263 0.08573953 0.35981122 0.089747585 0.054591406 0.18925285 0.2798518 0.22403607 0.10350405 -0.09866738 -0.3883027 0.103005566 0.45487872 0.5027107 -0.08467345 -0.17677212 0.3061068 0.27446675 0.3842117 0.3327368 0.28406134 0.30394363 0.23709801 0.16072622 -0.061233006 0.003493905 -0.32083893 0.5210053 0.51827013 -0.003100466 0.28764418 0.26054007 0.36400086 0.21070388 0.13040285 -0.10599614 -0.10241428 0.09009835 0.5302705 0.5301299 0.3042209 0.27477545 0.37413105 0.14727794 -0.010387227 -0.1563159 0.25432578 0.43296397 0.5048183 0.5074024 0.26756272 0.19927719 0.28275207 0.14147341 0.12895223 0.031927913 0.38882095 0.40661538 -0.041378066 0.24923512 0.45767814 0.36042392 0.29831663 0.09666846 0.21988061 0.16150318 -0.110976286 0.37162486 0.09054508 0.12230624 0.06263694 0.35181087 0.3574481 0.5559776 0.5859485 0.58746994 0.3384247 0.17206119 0.042927787 0.07000475 0.12200187 0.18018252 0.3128848 0.37571084 0.39510813 0.3956651 0.27109566 0.18649146 0.2397807 0.51029176 0.5732497 0.5275862 0.5740445 0.63985854 0.6403309 0.37147412 0.4688213 0.21971463 0.29574212 0.3330159 0.30855837 0.28961736 0.34478053 0.39744252 0.42229986 0.36315 0.23790418 0.30090427 0.32214102 0.5199367 0.5706146 0.5816224 0.54859525 0.28678772 0.12189877 0.5742832 0.35285908 0.37309092 0.3170961 0.38918787 0.4069638 0.4087161 0.3330965 0.32762352 0.32546744 0.21768066 0.3841136 0.54197073 0.59609187 0.6282586 0.62708646 0.39230478 0.4171558 0.4338215 0.46192026 0.4313058 0.43361625 0.4002003 0.38802886 0.42542094 0.43926305 0.4364943 0.46696383 0.5317854 0.5807456 0.59441143 0.43671447 0.48967093 0.4976928 0.5281912 0.5229987 0.5017246 0.54934174 0.5902751 0.58768535 0.8144787 0.8193866 0.83458674 0.7941589 0.8039581 0.77553964 0.77744716 0.6643374 0.75972986 0.72811145 0.6762756 0.5540055 0.51000345 0.46278107 0.28764254 0.36824912 0.2223991 0.16339704 0.580168 0.58172446 0.57231987 0.38403037 0.1910938 0.21754204 0.51766306 0.54324055 0.5132894 0.22928587 0.41866988 0.38671157 0.18766966 0.22508444 0.3859786 0.45809147 0.3092814 0.3284636 0.24593876 0.31615853 0.07104474 -0.16141662 0.06040732 0.25736842 0.33843568 0.28177628 0.22616297 -0.14946985 -0.2570378 0.26170295 0.08590916 -0.1062721 0.42165583 0.3479611 0.05548067 -0.010471687 0.14365649 0.28585097 0.30561838 0.42805284 0.32167077 0.3214566 0.4424189 0.26708853 0.19338416 0.35048014 0.4192938 0.5253061 0.46075886 0.11234006 0.20236337 0.23117492 0.09460616 0.05484426 0.008168399 0.3162843 0.44280207 0.10946437 0.15987667 0.009562746 0.14163738 0.011339085 0.0059478646 -0.061598007 -0.36734545 -0.009864677 -0.015342047 -0.024191178 0.17964697 0.29692024 0.13559803 -0.037418112 -0.32115167 -0.35971302 0.31370234 0.29255614 -0.027626798 0.15120639 -0.15619096 -0.4054824 0.17710805 0.24781875 0.27615583 0.32320178 0.03703612 0.28867763 0.23687583 0.19185832 0.078439996 0.12238917 0.09480839 0.15598199 0.27459922 0.25281295 0.078355305 0.14167033 0.119310856 0.11137472 0.05152768 0.056626458 0.18432625 0.03336844 0.12514398 0.06864501 0.10979129 0.10037454 -0.035214167 0.1750933 0.17798215 0.16580993 0.26559007 -0.13291399 0.059580393 0.16789645 0.24253534 0.28695983 0.30798027 0.27043325 0.20938236 0.4288394 0.4386084 -0.15771654 0.22101282 0.28897572 0.20669353 0.03751683 0.48703834 -0.23325816 -0.2435794 0.219753 0.32215425 0.26605892 0.2378118 0.21528739 0.2586892 0.1912492 0.14392537 0.11239409 0.112900525 0.053281702 0.5325361 0.2224815 0.23239869 0.25878352 -0.25079745 -0.26128832 0.031387184 0.01557713 -0.38323092 -0.4127971 -0.37590536 0.51826215 0.108594686 0.13476269 0.17276147 -0.095331155 0.13795395 -0.22080608 0.44392443 0.47612542 0.21128121 0.09080192 -0.029342473 -0.03895129 0.102308296 0.019556694 0.05058331 0.014488608 0.37940186 0.26860034 0.29549748 0.040585466 0.04513152 -0.15392183 0.19739655 0.26850566 0.29773393 0.27081832 0.04459007 0.27423912 0.53646606 0.31150487 0.13129205 0.00243406 0.0026292764 0.023328856 0.22908351 0.13879341 0.21859437 0.50487196 0.5839533 0.65202236 0.6351036 0.57959735 0.3099619 0.36351043 0.2412067 0.017142724 0.13706009 0.098953515 0.24101281 0.30615574 0.35685757 0.45755303 0.5428998 0.5022203 0.43157065 0.57229435 0.6464267 0.6432562 0.3476885 0.17527802 0.09391895 0.097759485 0.47464028 0.21432206 0.27459446 0.30294287 0.22951326 0.019171204 0.32144338 0.35671854 0.49976993 0.5657011 0.5769875 0.54724944 0.11224638 0.18852866 0.20526788 0.122563586 0.25224274 0.568181 0.6013568 0.31920147 0.38399017 0.39664304 0.31394166 0.35718548 0.30968118 0.25038832 0.50281453 0.54937565 0.55873835 0.39646983 0.44136012 0.48173827 0.54952896 0.55007815 0.46415478 0.54910076 0.62076896 0.6329801 0.639232 0.62346905 0.65137416 0.6759293 0.6799936 0.81362474 0.8407258 0.86533326 0.8621478 0.8231978 0.85169816 0.78600407 0.7871846 0.82731044 0.81333923 0.81426096 0.8481773 0.8505441 0.73772216 0.735402 0.783241 0.81994367 0.7920675 0.74334586 0.5997846 0.68470055 0.7242701 0.70364165 0.41953602 0.48033762 0.19431828 0.14812443 0.5517326 0.5554986 0.3730561 0.36132854 0.17855665 0.24072443 0.26702636 0.46449137 0.4913429 0.5302335 0.5564379 0.5568566 0.36813962 0.39508858 0.39479312 0.4638705 0.32981133 0.34951288 0.346971 0.15679449 0.25862306 0.2260492 0.3062603 0.22634351 0.21646117 0.25987542 0.28092533 0.32289732 0.30464244 0.19160213 0.16099533 0.19872844 0.26613197 0.028476626 0.13678953 -0.040917326 0.17861852 0.30823836 0.16593483 0.2087819 0.2769175 0.3996086 0.36958218 0.26938134 0.24174257 0.2272554 0.07671836 0.12026908 0.11106162 0.21568394 -0.06906612 0.34904298 0.30259278 0.28381768 0.24865785 0.1456187 0.18388766 0.20759937 0.112661645 -0.038012758 0.06423204 0.029323824 0.23873098 0.29085848 0.18039964 0.12306449 -0.18752114 -0.0027860478 0.006439384 0.025877494 0.2719367 0.30707777 0.2506828 0.079288304 0.02426856 0.013859397 0.2926803 0.30473822 -0.06038595 0.1454863 0.16676518 0.18958715 0.15624073 0.2623019 0.29098204 0.29754943 0.09094499 0.047216028 -0.048569955 0.26131225 0.25818604 0.06504264 -0.08522764 0.21195625 -0.23711386 -0.056841645 0.043756813 -0.26166877 -0.27532452 0.02781413