# vtk DataFile Version 2.0
Really cool data
ASCII
DATASET POLYDATA
POINTS 7776 float
-13.618758 21.134352 -8.308445
-13.6990795 21.084818 -7.620223
-13.728844 21.157476 -6.9418254
-13.653457 21.66908 -8.888236
-13.810762 21.64026 -8.228962
-13.929607 21.56157 -7.477388
-13.81201 21.594442 -6.7745895
-13.66682 22.468784 -9.230714
-13.809464 22.53588 -8.359082
-13.924259 22.206268 -7.5209765
-13.81907 22.115711 -6.7867866
-13.639124 23.0217 -9.043954
-13.62467 23.119099 -8.493167
-13.705599 22.821367 -7.6193385
-13.55852 32.04518 -4.646502
-13.5747385 32.526394 -5.423926
-13.605052 32.473335 -4.4731746
-13.573552 32.654236 -3.9497056
-13.663541 33.15286 -4.838725
-13.559762 34.999546 -1.284636
-13.587217 34.85028 -0.6100118
-13.608389 35.061646 -0.0047961026
-13.724781 35.952343 -1.2238834
-13.724614 35.416134 -0.3976533
-13.668201 35.76761 0.41625774
-13.705204 36.488895 -1.364772
-13.816608 36.37994 -0.48363003
-13.671215 36.414516 0.4955811
-13.564061 36.09041 0.91570157
-13.60894 37.579586 -7.4428363
-13.537271 37.686924 -6.9471154
-13.651991 37.427917 -1.2709101
-13.690609 37.30731 -0.47807592
-13.602792 36.976562 0.48815644
-13.546147 38.173973 -7.4446383
-12.692155 20.293365 -9.798615
-12.727865 20.313658 -8.655162
-12.661583 20.846888 -10.906345
-12.765075 20.615318 -10.32919
-12.939041 20.694637 -9.680057
-13.216238 20.78499 -8.437999
-13.296764 20.736652 -7.541982
-13.272903 20.91087 -6.7389755
-12.906362 21.182165 -6.148822
-12.701303 21.507679 -11.103282
-13.099203 21.429848 -10.362895
-13.4300375 21.618711 -9.433596
-13.589083 21.455736 -6.4796596
-13.290887 21.6847 -6.2084494
-12.874386 22.46508 -10.88623
-13.387781 22.482786 -9.986675
-13.502506 22.372793 -9.732974
-13.4734 22.38702 -6.4950886
-13.177794 22.205854 -6.1783123
-12.772972 23.67602 -11.082721
-13.146638 23.565903 -10.25445
-13.375092 23.443426 -9.520412
-13.373447 23.500816 -8.314173
-13.423166 23.153858 -7.5043097
-13.125114 22.96552 -6.7198563
-12.686398 24.434612 -11.039663
-12.873208 24.50913 -10.505651
-13.032163 24.309486 -9.717478
-12.923424 24.123343 -8.53012
-12.845162 23.861834 -7.814095
-12.609793 24.928814 -10.942242
-12.713434 24.951159 -10.529521
-12.6971035 25.158892 -9.99328
-12.765408 31.26059 -6.3431005
-12.986419 31.125557 -5.58305
-13.002684 31.15549 -4.404918
-12.9125185 31.176865 -3.7582645
-12.8329935 31.748528 -6.6577764
-13.054138 31.5976 -6.272421
-13.3251705 31.538359 -5.340939
-13.321015 31.542212 -4.5307007
-13.130415 31.611948 -3.629083
-12.983114 31.753363 -3.1895323
-12.804836 32.148235 -6.6985846
-13.2980175 32.5304 -6.155032
-13.487684 32.4021 -5.684426
-13.414051 32.253098 -3.5802047
-12.952491 32.421314 -2.8427076
-13.201398 33.158264 -6.142042
-13.487699 33.329197 -5.4157896
-13.336965 33.514282 -3.7748508
-12.949635 33.165478 -3.039236
-13.162473 34.0529 -1.2883356
-13.056478 34.030205 -0.30667937
-12.946196 34.043846 0.11782314
-12.940211 34.19399 -6.085622
-13.322007 34.368572 -4.9893847
-13.222019 34.606598 -4.072162
-13.400922 34.76005 -1.3091093
-13.458039 34.638023 -0.39220914
-13.228066 34.67675 0.40638283
-13.140091 34.999126 0.93965924
-12.790474 35.56237 -4.3236065
-13.54217 35.40934 0.6274844
-13.208997 35.59669 1.2425249
-12.901299 35.82915 1.6505945
-13.025029 36.997753 -8.139243
-13.364912 36.988064 -7.503261
-13.144643 36.908073 -6.5921116
-13.136535 36.901527 -6.0964665
-13.541431 36.713398 0.62501913
-13.2267065 36.408592 1.3348134
-12.925733 36.296947 1.663819
-13.268993 37.505432 -8.141784
-13.459258 37.318687 -7.8275204
-13.467565 37.742825 -6.460426
-12.961645 37.600887 -5.7812624
-13.225483 37.273636 -2.357112
-13.513322 37.65335 -0.25794676
-13.266632 37.39184 0.41064018
-13.076801 37.085278 1.0921896
-13.207411 38.29581 -8.137427
-13.396313 38.583805 -7.510446
-13.404791 38.67828 -6.7039523
-12.791337 38.78213 -5.848798
-13.215851 38.274124 -1.4329811
-13.248194 38.276726 -0.57219666
-13.113566 37.997086 0.0793564
-12.979679 38.986736 -8.029788
-13.110169 39.230343 -7.343622
-13.19914 39.099693 -6.7734857
-12.751406 38.826252 -5.9283214
-12.894176 38.688564 -1.1306418
-11.577262 17.11225 8.065897
-11.632749 16.966469 8.570039
-11.645758 17.056723 9.086319
-11.603968 17.51997 7.990036
-11.712158 17.463373 8.539085
-11.624128 17.441013 9.346549
-11.601525 18.085224 8.028097
-11.615934 18.06775 8.587088
-11.602675 18.023245 9.131239
-12.137897 20.252066 -10.887831
-12.388661 20.109179 -10.214804
-12.315222 20.011833 -9.695073
-12.260767 19.955614 -8.89514
-12.151625 20.242964 -7.7579007
-11.722079 21.023323 -12.755269
-11.951095 20.904789 -12.2663145
-12.327777 20.777662 -11.40038
-12.586502 20.444536 -10.489149
-12.246001 20.652124 -6.6009026
-12.58147 20.989088 -6.2440853
-11.800803 21.499983 -12.8485155
-12.146697 21.603025 -12.322968
-12.427274 21.916767 -11.793453
-12.311673 21.6223 -5.8357368
-11.763852 22.106268 -12.816857
-12.067229 22.234783 -12.378604
-12.625288 22.23733 -5.9203734
-12.092177 23.550648 -11.852834
-12.516294 23.83687 -11.321603
-12.406032 23.34053 -6.5847073
-12.684371 22.808237 -6.1970773
-12.124642 24.409184 -11.7555685
-12.451883 24.454762 -11.3734865
-12.3426485 23.881264 -7.3690705
-12.220486 25.137085 -11.224198
-12.396798 25.367386 -10.744433
-12.261726 25.460495 -9.485138
-12.161841 25.115784 -8.861027
-11.88763 25.707039 -11.040785
-11.726474 26.164557 -10.133452
-11.776996 26.117151 -9.742939
-11.80105 25.999943 -8.999619
-12.515121 31.113268 -6.214819
-12.483327 30.933643 -5.839083
-12.528511 30.966846 -4.4508758
-12.21604 31.008017 -3.7589355
-12.379067 31.692726 -6.759925
-12.621009 31.533428 -2.991493
-11.996301 31.8978 -2.20849
-12.27701 32.50179 -6.9041157
-12.531715 32.55263 -2.4023702
-12.305466 32.85837 -1.719298
-12.0037775 32.973194 -0.9310786
-12.070732 33.3778 -6.910369
-12.727524 34.126987 0.35070658
-12.558366 34.313656 0.76606977
-12.069117 34.107117 -6.88178
-12.628413 34.739494 1.1626811
-12.224638 36.37168 -7.9470434
-12.408928 36.160027 -7.4729424
-12.486215 35.74805 1.7718775
-11.982066 36.95813 -8.71421
-12.450272 36.782677 -8.305879
-12.424646 36.471912 -3.4763172
-12.372914 36.402267 1.8012178
-12.297875 37.65494 -8.879938
-12.747793 37.36676 -8.554674
-12.506819 37.126377 1.382246
-12.496562 36.801952 1.622873
-12.112745 38.25309 -9.025791
-12.636639 38.640934 -8.533859
-12.503012 38.00778 -2.6764994
-12.724737 38.5403 -0.25568235
-12.3504 38.160156 0.39563927
-12.393408 37.717003 0.7755341
-12.424043 39.194557 -8.28186
-12.700592 39.566666 -7.5122023
-12.569123 39.52562 -6.359631
-12.451261 39.22867 -5.9926395
-12.498789 38.893993 -1.192352
-12.237822 38.930637 -0.7155645
-12.049161 38.620754 -0.06419931
-12.169242 39.690678 -7.904862
-12.568878 39.645653 -7.536091
-12.261512 39.9017 -6.8286185
-10.98217 16.323523 8.524557
-10.9873 16.2948 9.291185
-11.207829 16.809439 7.880994
-11.381185 16.587044 8.637945
-11.341532 16.66198 9.321332
-11.032364 16.674269 10.234788
-10.678637 16.760693 11.119256
-10.914369 17.661661 6.963605
-11.376962 17.467834 7.711884
-11.518301 17.500074 9.578742
-11.189017 17.56257 10.366064
-10.739154 17.370316 11.212876
-10.953396 18.332453 6.7903
-11.351021 18.2348 7.631392
-11.370194 18.540363 8.54769
-11.248249 18.563679 9.571564
-11.101351 18.155624 10.340361
-10.637193 18.458822 10.92959
-10.666718 19.053701 26.950708
-10.677561 19.101149 27.301044
-11.195641 20.352139 -12.4120865
-11.409251 20.117825 -11.39561
-11.753333 19.787008 -10.286297
-11.638356 19.601349 -9.541968
-11.358855 19.639824 -8.793638
-10.785307 19.170313 6.781405
-11.04737 19.039608 7.4709797
-10.877692 19.115332 9.501336
-10.674015 19.052841 10.111192
-10.621092 19.460142 26.151096
-10.7918215 19.598558 26.707602
-10.783514 19.529638 27.337868
-10.67271 19.7982 27.808712
-11.266664 20.828188 -12.911694
-11.429489 20.559042 -12.554033
-11.507476 21.175688 -5.8789897
-10.728341 20.343563 26.650589
-10.750352 20.430365 27.291328
-10.640212 20.140982 27.791578
-11.302152 21.636806 -13.210421
-11.696929 21.630575 -5.6502504
-10.650876 20.823765 26.873383
-10.624318 20.880568 27.407726
-11.355287 22.29009 -13.045999
-11.663359 22.131647 -5.6044645
-11.063173 22.833462 -12.880315
-11.289415 23.46562 -6.430869
-11.739962 22.984476 -5.88863
-10.757707 23.965815 4.977871
-10.985936 23.886723 5.594005
-11.045094 23.856434 6.2929883
-10.839684 23.962072 6.9644814
-11.643875 24.219076 -11.97986
-10.616147 24.745382 4.12651
-11.022418 24.716307 4.9629827
-11.146268 24.614828 5.613871
-11.111104 24.506857 6.4842076
-10.883013 24.527979 6.932137
-11.5441 25.052174 -11.74236
-11.516683 25.139347 -8.159259
-10.618209 25.236034 3.9232037
-10.720895 25.394224 4.5585494
-11.0489645 25.118036 5.7403173
-11.007408 25.07462 6.235184
-10.751224 25.044506 6.8831425
-11.246847 26.093582 -11.131411
-11.380136 26.35361 -10.549333
-11.566961 26.428766 -9.497266
-11.225818 26.323915 -8.704108
-10.8342 25.975256 -8.034721
-10.63086 25.770397 5.0463862
-10.954036 26.871702 -10.234933
-11.088594 26.917953 -9.533928
-10.977907 26.811298 -8.886665
-11.620158 31.144342 -6.0706053
-11.75863 30.973207 -5.7062974
-11.664927 30.897623 -4.4671655
-11.852691 31.035366 -3.692365
-10.98954 31.258345 -2.0847666
-11.689414 31.940912 -6.8513017
-11.437555 31.523989 -2.746559
-11.580073 31.826677 -2.0519178
-11.141858 32.099678 -0.5850812
-10.657264 31.904528 -0.016924724
-11.266773 32.55889 -6.6761184
-11.263617 32.602005 -0.31807977
-11.047307 32.724983 0.64207685
-10.833591 32.847904 1.0267228
-11.164118 33.250507 -6.835544
-11.129248 33.642914 1.080179
-11.741627 34.081696 -6.9998655
-11.952744 35.136417 1.5937206
-11.2991705 36.276093 -8.185568
-11.798228 35.74336 1.8031336
-11.665761 36.972702 -8.877807
-11.366479 36.379227 1.5285678
-11.832404 36.366398 1.7670512
-11.344345 37.68365 -9.300585
-11.867461 36.881084 1.6586818
-11.228707 38.514687 -9.420759
-11.467754 38.3093 0.44245026
-11.218669 39.188225 -9.058764
-11.654852 39.460648 -5.6660795
-10.863819 38.892826 -4.6515574
-11.112651 38.78589 -3.1513925
-11.455866 38.849823 -2.479261
[...]
POINT_DATA 7776
SCALARS features_00 float 1
LOOKUP_TABLE default
0.57325715 0.7079276 0.80207413 0.5173209 0.6235926 0.7525095 0.8197074 0.49171573 0.5911792 0.7345646 0.8089851 0.48864892 0.5296699 0.670135 0.6794847 0.6934633 0.6324341 0.5771289 0.59184945 0.43036032 0.47772682 0.5353098 0.5182866 0.53154725 0.6256221 0.55656004 0.5894639 0.666753 0.6992404 0.78095776 0.7686509 0.6122505 0.6182184 0.6706722 0.79547286 0.39950532 0.44178653 0.43188936 0.40882918 0.41340527 0.5115485 0.68065727 0.7859552 0.7572961 0.43535691 0.4183724 0.45598724 0.81805664 0.79484415 0.38190398 0.41786525 0.4400711 0.79211354 0.77743506 0.39662114 0.40826282 0.43982524 0.5060117 0.6402113 0.71915424 0.44461802 0.43958223 0.42771268 0.4282602 0.4905131 0.4711408 0.46364856 0.45618802 0.8257947 0.81549555 0.7013592 0.5978922 0.80899394 0.81655014 0.7791686 0.7026401 0.5808012 0.5077931 0.7784438 0.74499416 0.7263991 0.5599166 0.42194688 0.6900553 0.6063673 0.48629093 0.3913094 0.30309922 0.38545477 0.41403586 0.6179598 0.47812867 0.39571393 0.39785737 0.47176188 0.53438234 0.6242109 0.037254028 0.6220529 0.7136401 0.7473283 0.70938563 0.7423243 0.7121501 0.6573982 0.6861159 0.74252844 0.74762166 0.76446384 0.7667684 0.75243235 0.6836767 0.5396737 0.6204142 0.65452677 0.70667416 0.79339087 0.7938851 0.7749448 0.6791253 0.5891299 0.59345746 0.61230457 0.7716174 0.7523488 0.74650943 0.67728424 0.5627833 0.65422976 0.6690673 0.6700275 0.64135325 0.65350586 0.6524564 0.6107091 0.6164526 0.621766 0.42599365 0.3931117 0.38263667 0.39545685 0.53314716 0.5987554 0.5427347 0.4679913 0.4109836 0.690744 0.72291505 0.5967362 0.5277086 0.4498009 0.70139575 0.5592524 0.48488298 0.7278024 0.3970475 0.40918273 0.6334191 0.71169055 0.44565988 0.45074567 0.4972659 0.49538386 0.50100505 0.4546503 0.40472844 0.5375177 0.53474855 0.5146297 0.46921408 0.8179527 0.8135822 0.69684505 0.54257506 0.7716534 0.45779485 0.26819545 0.66310114 0.29839534 0.13070731 0.10114515 0.52560306 0.427841 0.48458445 0.45028475 0.6004346 0.59012467 0.586892 0.7175708 0.62678534 0.6462929 0.22989152 0.6970361 0.68771505 0.7081559 0.69024 0.70478207 0.6931667 0.7681663 0.4955512 0.57097995 0.5728891 0.6199734 0.734012 0.71044695 0.6249263 0.59657514 0.5394459 0.5359224 0.5344576 0.66882694 0.6945381 0.59678674 0.6420604 0.6581695 0.6462637 0.6700729 0.67612046 0.62588674 0.4483812 0.5758124 0.63226813 0.6435805 0.5760186 0.45210296 0.5345359 0.59285593 0.5802934 0.56103647 0.53964776 0.4469851 0.5867965 0.594131 0.58617365 0.46974188 0.38229525 0.36141926 0.36814243 0.50356156 0.54459244 0.4639268 0.42727682 0.63715935 0.66661793 0.65758014 0.66934645 0.63906646 0.59366584 0.62153846 0.6986425 0.7024424 0.68807846 0.63223964 0.64624184 0.6818284 0.6870502 0.58061385 0.639892 0.51187813 0.49722016 0.62367773 0.5500701 0.65785396 0.71358633 0.6738746 0.42411143 0.5371901 0.65610373 0.7210995 0.71183527 0.67897475 0.4977184 0.3744939 0.5629047 0.6375546 0.7241807 0.713349 0.665985 0.563956 0.5625317 0.52496564 0.49922413 0.4420942 0.66206867 0.5837084 0.5715725 0.5532492 0.7338438 0.7413725 0.59919536 0.48970544 0.18981567 0.6323862 0.3000908 0.21036163 0.1582034 0.25983065 0.4662836 0.19551799 0.36012864 0.4009917 0.3992795 0.37928316 0.38919052 0.6003592 0.4959297 0.57533437 0.61095023 0.4783436 0.59907776 0.5855135 0.59964657 0.5374113 0.51036537 0.5407643 0.38722202 0.06010366 0.22655037 0.42069572 0.50362945 0.5024963 0.48531538 0.5179354 0.47099876 0.77279043 0.77518517 0.7585232 0.72560036 0.7303506 0.71158797 0.5887434 0.5930971 0.5510045 0.58710647 0.37930557 0.59185004 0.41079724 0.28883928 0.39488825 0.45466566 0.4857666 0.40605086 0.36850062 0.3891839 0.35352778 0.37861627 0.38518372 0.29119712 0.4128622 0.44377655 0.36109185 0.4652025 0.5186574 0.52191734 0.517694 0.51820326 0.38188392 0.40508574 0.33977658 0.34573767 0.55482686 0.6457064 0.611164 0.6393171 0.5538336 0.40845883 0.43340957 0.3060857 0.29068622 0.6336367 0.6509463 0.68501425 0.65844023 0.5740589 0.6227329 0.5478455 0.51864296 0.61935776 0.65723896 0.65816903 0.5732366 0.5443206 0.25458404 0.4441467 0.6207959 0.405567 0.5616845 0.60557365 0.51932484 0.40339828 0.2932045 0.36493373 0.45907608 0.61450535 0.49542987 0.4292955 0.13650964 0.48966777 0.41422874 0.37201792 0.25608298 0.30918363 0.43162292 0.64287317 0.5708506 0.5355099 0.49597585 0.4207121 0.354416 0.29949167 0.4121485 0.5425625 0.6557287 0.6151393 0.54133403 0.45620477 0.37962127 0.3198269 0.30649254 0.4614536 0.51362616 0.56713015 0.6136659 0.58543015 0.5756055 0.5938084 0.6212747 0.5893762 0.5759671 0.5569229 0.52767146 0.59340656 0.57229185 0.53301704 0.55463374 0.5331677 0.1935691 0.07260807 0.16086291 0.1310353 0.16326676 0.17847247 0.34187892 0.31700763 0.28907204 0.44017434 0.4425007 0.35186142 0.40901893 0.42973536 0.2473999 0.38012412 0.33392555 0.39579737 0.51742685 0.41060174 0.44953346 0.4100677 0.40185642 0.402521 0.40797436 0.40912092 0.37859526 0.45897692 0.45979184 0.4367327 0.35733932 0.27303222 0.46249175 0.3005454 0.2716639 0.7272086 0.753538 0.7642982 0.75798404 0.6997248 0.5962396 0.6352272 0.63659954 0.744444 0.77061176 0.689546 0.5470489 0.6140827 0.6265275 0.62427425 0.40585294 0.38530648 0.7172373 0.7088918 0.59989095 0.4297021 0.3724146 0.2291626 0.47259727 0.55134875 0.42487955 0.42961812 0.4000779 0.35829717 0.25449646 0.59875095 0.6661321 0.6642157 0.44975102 0.4132963 0.48424846 0.20499936 0.4335437 0.3580624 0.40821314 0.41624394 0.3939329 0.32809034 0.24811181 0.26317888 0.25441658 0.5497491 0.61173785 0.57917404 0.23358119 0.17187116 0.19433388 0.2129258 0.2582221 0.46596736 0.47133768 0.4707884 0.45481682 0.38861892 0.40492192 0.29702508 0.26473573 0.27857116 0.30403778 0.32276055 0.4192763 0.25899827 0.06596327 0.20280069 0.3712406 0.41036192 0.41586518 0.50342315 0.509215 0.48804682 0.34203088 0.37704754 0.39189205 0.38349837 0.36999005 0.3635136 0.31767043 0.38920507 0.46918255 0.56980664 0.6354869 0.6124493 0.4574578 0.036941655 0.12381734 0.19261256 -0.015061136 0.27176625 0.18615445 0.2430983 0.41491717 0.46715802 0.4759974 0.46852493 0.46134883 0.49024248 0.37574148 0.3666533 0.5134804 0.5627364 0.6608721 0.6752403 0.65947604 0.59682333 0.2073565 -0.10359352 0.07262331 0.2101436 0.46557882 0.50570655 0.5176779 0.48093784 0.45478505 0.5696764 0.63319236 0.68018436 0.65602684 0.58146954 0.55038446 -0.044777513 -0.03381903 -0.07853953 -0.19096103 0.12985414 -0.108548574 0.07028782 0.5127785 0.50742364 0.19344677 0.4092871 0.49852037 0.60264766 0.5081329 0.49340034 0.552075 0.64628315 0.53331625 0.52258414 0.13601828 0.111217126 0.15187328 -0.034558184 -0.030480672 -0.012774169 0.21364531 0.2419155 0.4098997 0.458063 0.5836872 0.561201 0.4336831 0.37217355 0.348858 0.29120767 0.28351805 0.070536464 0.009977095 0.34645516 -0.011588156 0.46899337 0.4492457 0.06039548 0.41723514 0.3364247 0.3879319 0.48124087 0.48138025 0.41450405 0.10035112 0.23316371 0.33163244 0.331397 0.18499532 0.17112182 0.3390196 0.5041924 0.46848655 0.50035065 0.53378767 0.5177146 0.45202416 0.5156601 0.5539363 0.59273684 0.4448565 0.32214373 0.3158502 0.2772681 0.19781539 0.36350515 0.422076 0.4505874 0.42383826 0.59458053 0.59215724 0.5362239 0.48381656 0.4354983 -0.027102381 0.15561102 0.63725775 0.61603 0.4962436 0.4531331 0.44362688 0.009045109 0.044461176 -0.020870239 0.6429429 0.63177776 0.57117647 0.5228839 0.4759239 0.5302206 -0.013819909 -0.049803168 0.16662066 0.6131433 0.43888766 0.5083138 0.6188544 0.63946795 0.68501186 -0.089688644 -0.0799137 0.4524445 0.44475222 0.5316148 0.68026894 0.75023377 0.78645205 0.021331638 0.44946155 0.58616763 0.70589113 0.7880198 0.8281678 0.08318042 0.42028773 0.8225256 0.83421504 0.387987 0.38451427 0.20100509 0.2399376 0.24881658 0.41576216 0.1829614 0.3939448 0.21840301 0.3934139 0.3827935 0.30880868 0.38617206 0.34608227 0.32560217 0.45032197 0.48474258 0.38442397 0.31605065 0.28414282 0.7099191 0.70066845 0.619092 0.52218795 0.6191174 0.63420355 0.7021637 0.7216469 0.6068088 0.38404956 0.1570094 0.31755495 0.51892203 0.6266798 0.6325459 0.58818793 0.6807671 0.7030982 0.48068964 0.36208162 0.034790594 0.1220266 0.6072489 0.58108914 0.3260282 0.3867004 0.36878482 0.29072076 0.27389485 0.46841818 0.47550008 0.70824134 0.72323906 0.6829338 0.6494444 0.32325253 0.16081026 0.05497311 0.2958138 0.30481574 0.360649 0.2691791 0.24716431 0.24657372 0.48506582 0.5291325 0.53455836 0.681903 0.6749539 0.5661471 0.13824724 0.4366253 0.17486444 0.34443098 0.36441997 0.38807827 0.25930053 0.067335784 0.25351936 0.24836466 0.24743652 0.21393868 0.4655986 0.54305124 0.54687065 0.513579 0.4960866 0.40110272 0.17974174 0.15052798 0.1875329 0.17855708 0.098381005 0.050163426 0.051312625 -0.021952584 -0.18222283 -0.041545853 0.1233226 0.22172886 0.2664971 0.36477637 0.40818766 0.29708415 0.19281171 0.09119407 0.10870767 0.16321123 0.30762848 0.39525262 0.30816573 0.4991609 0.522759 0.050240487 0.08697272 0.1893175 0.19445167 0.19008052 0.11908618 -0.15115634 -0.06652301 -0.08686002 0.27053145 0.008637324 -0.022028916 0.21236631 0.33358055 0.5362184 0.82247484 0.46286392 0.18038659 0.18849416 -0.14688218 -0.20805371 0.4260654 0.47041053 0.2814807 0.19842604 0.36596525 0.6031717 0.6589706 0.7813301 0.84998107 0.8527229 0.44820118 0.19809103 0.17100024 -0.084246166 -0.10077256 -0.07163368 0.3598163 0.3829581 0.36269754 0.39009446 0.22204098 0.2432328 0.20912352 0.40647903 0.6262394 0.5740653 0.55714786 0.60978127 0.75134414 0.8288665 0.8298719 0.5032481 0.5160512 0.17867154 -0.08205541 -0.057830498 0.42760554 0.4737261 0.43674433 0.41413912 0.46357286 0.31448382 0.23892151 -0.081037715 0.31754583 0.36480087 0.55014014 0.52778584 0.25422814 0.40598965 0.50906277 0.6201351 0.41446188 0.023430042 -0.015846383 0.06039583 -0.1558097 -0.00081791077 0.19249213 0.50694644 0.45036507 0.34971523 0.13488689 0.08956057 0.32038176 0.26832113 0.3200904 0.37283236 0.44565985 0.29984772 0.2929888 0.3463604 0.19137496 -0.36537766 0.2155273 0.21804076 0.28027382 0.51880753 0.3950302 0.29959774 0.35127556 0.33721095 0.12576617 -0.18726517 -0.44963217 -0.3757335 0.35066992 0.25037107 0.10578002 0.09668392 0.18117452 0.3872109 0.4070792 0.30074906 0.40158352 0.334912 0.28862363 0.19462225 0.32033476 0.31820965 0.4775196 0.4880038 0.4181888 0.2851761 0.49054632 0.1623276 0.25849327 0.3198639 0.31593108 0.34675488 0.50847816 0.5759238 0.41057488 0.38052684 -0.038760252 0.03143704 0.24418661 0.46353745 0.5681373 0.38304967 0.33562675 -0.20170435 0.040770516 0.5962804 0.39258137 0.46742225 -0.13441496 0.22710522 0.5990683 0.53477746 0.4807078 0.6259137 0.64468515 0.20898488 0.17442068 0.09909975 0.39322805 0.43235213 0.81823725 0.80865216 0.24067648 0.43493366 0.4207263 0.5230452 0.8666163 0.87332296 0.59580344 0.7247332 0.8291724 0.8727126 0.89162695 0.35340092 0.19226667 0.19287251 0.22688797 0.25161716 0.34109038 0.15156895 0.37520337 0.35304114 0.13761048 0.40920746 0.4151884 0.4357327 0.20698205 0.44893605 0.46109518 0.39655322 0.33568525 0.27545938 0.42125413 0.41413337 0.43456143 0.3922264 0.4525618 0.4793941 0.42727724 0.6455595 0.59509027 0.47603726 0.3433575 0.5586085 0.57449883 0.46983987 0.50106514 0.42912275 0.63772 0.32091725 0.28849107 0.13157614 0.12088006 0.25313956 0.588132 0.2207227 0.2541106 0.21557939 0.57200724 0.6029267 0.5534316 0.070771344 0.012495973 0.07849713 0.47448814 0.16033132 -0.06321298 0.24315389 0.19240569 0.22205442 0.37607843 0.4272511 0.3408857 0.7842237 0.7439984 0.63236487 0.6643838 0.6267438 0.5607821 -0.14454773 0.3522312 0.22469974 0.24986148 0.22486202 0.095471665 0.064625606 0.22608566 0.19077212 0.25158334 0.47298294 0.7381811 0.7379305 0.45993045 0.32408315 0.072691776 0.15754241 0.07442433 0.030798158 0.21689945 0.016793929 -0.008166768 -0.055881184 0.014591381 0.38573956 0.6772211 0.63505083 0.59486055 0.356546 0.113453865 0.047852702 0.115650445 -0.07096104 -0.005588237 -0.019608848 -0.07613333 -0.033530075 0.030618824 0.1562286 0.6241456 0.5602392 0.4985732 0.38532966 0.16471818 0.13448688 0.5871531 0.75314176 0.84144723 0.85819066 0.15991363 0.23614797 0.17548929 0.15718369 0.09827284 0.46725285 0.54954505 0.8639504 0.84484184 0.32837528 0.23916075 0.2689387 0.33782518 0.16619219 0.14885505 0.12669636 0.12728839 0.5036799 0.7935887 0.8163752 0.2566188 0.2723143 0.36140406 0.39330178 -0.20056903 0.10599895 0.40392476 0.1637619 0.22165865 0.14743145 0.3926688 0.4675956 0.666808 0.7110475 0.7528286 0.27350903 0.17221744 0.2621946 0.3006802 0.54627657 0.561337 0.24056034 0.17567295 0.15520692 0.24332994 0.28616482 0.33378202 0.26718575 0.26290968 0.10345413 0.20106763 0.4664967 0.043955967 0.29206246 0.27097613 0.605075 0.5600116 0.50043774 0.30788958 0.06350204 0.33765197 0.20751497 0.26760185 0.25935233 0.31210482 0.365682 0.15114056 -0.0019063205 -0.0006727874 0.23791224 0.11701614 -0.47378844 0.13827449 0.25638935 0.2922945 0.5194171 0.5459832 0.4881844 0.16548671 0.38989192 0.36349565 0.33913526 0.029241145 -0.32333428 -0.14672792 0.25037408 0.5199939 0.55078405 0.33027452 0.32763043 0.14130591 0.07751614 0.5732454 0.102800444 -0.22351989 -0.1965375 0.24817014 0.24793822 0.41780108 0.32148457 0.2721222 0.64290094 0.280757 -0.09453422 -0.14096723 -0.1418347 -0.2406508 0.18697771 0.23818709 0.24064027 0.3586903 0.36668748 0.3058684 0.5510707 0.43868452 -0.19150236 -0.19489183 -0.25947374 -0.32313377 0.124932066 0.17484857 0.40737247 0.40713346 0.31902805 0.31594434 -0.29200563 0.012262017 0.72287786 0.40704364 0.40069598 0.08143559 -0.0030054897 -0.026658654 0.7534218 0.74361837 0.6287582 0.4478939 0.43142676 0.51059735 0.5667751 0.22297311 0.71069133 0.7411032 0.62456214 0.38427052 0.76260775 0.3254385 0.28402317 0.31251884 0.32523832 0.4086818 0.8838355 0.3195968 0.30918002 0.5383772 0.715533 0.80933833 0.880134 0.9106113 0.12924376 0.31339446 0.15812531 0.06569932 0.048660412 0.076115586 0.4247634 0.06621154 0.10145754 0.43558228 0.44505477 0.33161417 0.27764106 0.42785984 0.43169662 0.39044285 0.22372729 0.27874425 0.38633278 0.39326024 0.37524226 0.50816983 0.50687706 0.34795713 0.41201535 0.36536366 0.5138618 0.51722634 0.4750894 0.52143407 0.60504305 0.07889425 0.116748855 0.16324908 0.33861405 0.18301599 0.46797383 0.5030437 0.48046356 0.4425221 0.41010547 0.5670998 0.6459718 0.6656434 0.301432 0.36183584 0.19987911 0.12723637 -0.026074002 0.024718625 0.16847572 0.17042027 0.36596847 0.26494372 0.27195013 0.033421166 0.17861578 0.17172451 0.21416272 0.51601934 0.632884 0.6622969 0.11467703 0.072024256 -0.010835083 -0.17466235 -0.1780837 0.13122743 0.04538387 0.0052594803 -0.083768 0.19500378 0.40824172 0.5434294 0.5832432 0.8203398 0.80107343 0.7148882 0.5183895 0.4567937 0.5247113 0.4100666 0.18494838 0.16329719 0.1842996 -0.008714092 0.098137215 0.0067279413 0.010743499 0.014052868 -0.20192322 0.13759348 0.37823445 0.7628665 0.77527344 0.29228407 -0.027995527 0.021718934 -0.004058942 -0.051998027 -0.16015275 0.2257466 0.6963721 0.69032276 -0.0093133 0.04490231 0.58325666 0.6254489 0.6041584 0.11935245 0.4586711 0.5760635 0.7783252 0.811329 0.4226932 -0.14862475 0.101383165 -0.034955367 -0.16503584 0.1886945 0.3359758 0.795748 0.3709253 0.13128217 0.10775079 0.10301988 0.24611028 0.038870193 0.7607248 0.73497885 0.19405761 0.008910857 0.18681602 0.2106382 0.23007265 0.44822896 0.098423086 0.6242315 0.67303896 -0.0017722696 0.044552978 0.092078 0.16035563 0.08700528 0.18768989 -0.103101954 -0.14491785 0.34428626 0.28311402 0.47608638 -0.2584078 0.21967328 0.60942495 0.5688896 0.46146452 0.3146681 0.13854288 0.06682892 0.16264112 0.17490983 0.38794485 0.24684484 0.24990281 0.24022117 0.39272016 0.30446345 0.10447433 0.118165344 0.27797446 0.3602047 0.5874822 0.4503764 0.09670925 0.3973299 0.48487258 0.50544584 0.53759205 0.23204322 0.30556312 0.4098259 0.4653921 0.45527285 0.28771502 -0.042411275 0.69523925 0.6884336 0.1670419 0.20817417 0.3705871 0.42846403 0.45168874 0.4799074 0.45282757 0.25165346 0.22542486 0.7301587 0.701267 0.04792896 0.08207579 0.49089742 0.49850264 0.6769892 0.5865782 0.14778735 -0.17360032 0.10962204 0.2350705 0.2718407 0.28461802 0.06610304 -0.056616094 -0.11783378 -0.13379642 -0.20135286 -0.38329816 0.7339384 0.6916839 0.58447015 0.45825166 0.3758806 0.30090716 -0.11844188 -0.087867305 -0.14171079 -0.10564509 0.6586777 0.7407543 0.49482894 0.39295298 0.29951835 0.25406364 0.4034335 0.43150717 0.3072269 0.57625645 0.6588334 0.5709996 0.43287498 0.5292159 0.54711753 0.5323343 0.20835751 0.19863354 0.52484506 0.32976502 -0.073961526 0.46194255 0.5060771 0.59717095 0.3818726 0.6086991 0.61202186 0.59084964 0.14946802 0.25591877 0.7712877 0.25420782 0.5202966 0.6116899 0.6253673 0.6237818 0.3767461 0.6128106 0.7331342 0.8526888 0.8730204 -0.015413456 0.07518579 0.501068 0.56713724 0.58201975 0.5870457 0.18520522 -0.013690323 0.17587121 0.15451284 0.19629873 0.24072532 0.104531825 0.35820237 0.07481815 0.3980324 0.06699511 0.4131511 0.20252594 0.31688094 0.40632012 0.39698356 0.4570859 0.52748436 0.60898685 0.3751055 0.41159645 0.48105103 0.32272345 0.14572239 0.28875056 0.3895968 0.5627693 0.6086564 0.6273888 0.33524662 0.29613683 0.21708268 0.15472656 0.13455345 0.14062436 0.24321383 0.22913964 0.20153922 0.5722946 0.6072976 0.61461645 0.32796627 0.24081805 0.15005553 0.10802679 0.15288383 0.1591081 0.12650098 0.15619639 0.30289316 0.21002829 0.42487496 0.47669977 0.48467755 0.45096737 0.36389908 0.55613303 0.57917887 0.5960699 -0.008926261 0.04152921 0.1224269 0.08461401 0.08349287 0.4428574 0.4893648 0.4526196 0.38500822 0.35969412 0.47214442 0.55661654 0.59821045 0.012742382 0.13565758 0.10685098 0.012366977 0.042629614 0.114415795 -0.108758174 0.0054559 0.01794283 0.18476915 -0.16446914 0.4369951 0.31834307 0.033167288 0.6317209 0.5487392 0.07395201 -0.016461562 -0.12711027 0.032867976 -0.14896527 -0.16109553 -0.17873114 -0.15581587 -0.18208243 -0.24014121 0.28761256 0.31271484 0.57772076 0.73016787 0.6536852 0.37359178 0.3625012 0.3202415 0.16180645 -0.1364507 -0.09639358 -0.14712141 -0.15078574 -0.1991252 0.017641917 0.09763229 -0.07845956 0.5503217 0.42143676 0.8318464 0.75257796 0.6269083 0.48305267 0.08247195 0.21137975 -0.08140269 -0.25183797 -0.10912137 -0.05503039 -0.073150426 -0.11558965 -0.16538899 0.2706077 0.29492104 0.78595567 0.8024161 0.16566919 0.09116143 0.28282222 -0.028462872 -0.12463299 0.7057715 0.09195978 0.021578334 -0.08169341 -0.10275316 0.35446456 0.4336923 0.48513475 0.5519431 -0.14826714 -0.019075066 0.27540708 0.6958924 0.64451087 0.47207916 -0.14100096 0.6462288 0.5311249 0.3972506 0.37394574 -0.19496435 -0.42187786 0.60868895 0.28250623 0.08214718 0.17047231 0.59790635 0.00990098 0.052735742 0.41673172 0.06669546 -0.17448927 -0.23079132 0.24013272 0.13039158 -0.024072742 0.5221864 0.3675465 0.25373578 0.22103266 -0.12688473 -0.064974636 -0.008691825 0.17253987 0.4121912 0.32101983 0.027154244 -0.07991031 0.016167406 0.19017684 0.19706509 0.18815728 0.14097092 0.26757723 0.17462376 0.19088833 0.24822602 0.43514937 -0.048664063 0.048165157 0.13976525 -0.13649419 0.6019282 0.5644971 0.3510515 -0.008696565 0.31307432 0.3670647 0.48710233 0.44913504 0.24074967 0.1742322 -0.1262553 0.6738485 0.18910253 0.26880288 0.15057723 0.72244906 0.23277798 0.36839873 0.31859052 0.10813485 0.7104496 0.69003963 -0.32560635 -0.13875689 0.12985028 0.3113892 0.47950077 0.30894187 -0.020451829 0.22952844 0.107887454 0.021319643 0.17582862 0.6331767 0.46492162 -0.20980805 0.4771173 0.41928306 0.21180552 0.15503989 -0.00039961934 0.4672815 0.26895738 0.041917436 0.33572376 0.23866674 0.30960488 0.3531301 0.12972176 -0.14413008 0.28777605 0.32685494 0.47811672 0.44000512 0.43510762 0.080710255 0.39834476 0.37251776 0.34832552 0.35853976 0.3049102 0.340107 0.5263207 0.53025985 0.07454945 0.4325528 0.34131488 0.3447186 0.33142984 -0.042370595 0.26133007 0.2516681 0.5980911 0.5681126 0.6207775 0.33876687 0.32126772 0.38697797 0.50199765 0.54180986 0.5541029 0.5152786 -0.25833482 0.48020262 0.5088373 0.5182489 0.21176693 -0.025276102 0.17179541 0.19537638 0.22454453 0.12086287 0.30406776 0.075135276 0.33969298 0.34740815 0.3601387 0.46461284 0.356