# vtk DataFile Version 2.0
Really cool data
ASCII
DATASET POLYDATA
POINTS 7728 float
-2.625022 -8.867888 40.862312
-2.6642833 -8.090719 40.144344
-2.7844076 -8.389136 40.65053
-2.9265757 -8.185884 41.42709
-2.6822565 -8.428385 42.069054
-2.651751 -7.836837 40.17306
-2.8879545 -7.5324993 40.72418
-2.9536145 -7.5520616 41.563465
-2.7761023 -7.634406 42.115612
-2.8057694 -6.716977 41.375362
-2.806438 -5.809384 48.57602
-2.8661628 -5.430289 48.006443
-3.022912 -5.415442 48.650776
-2.8431356 -5.421565 49.256866
-2.8977854 -4.6546817 47.85607
-3.1749141 -4.5452423 48.62941
-2.9791992 -4.627935 49.357265
-2.754599 -4.69639 49.737537
-2.942356 -3.4290957 48.03377
-3.1586442 -3.545255 48.537834
-3.0627508 -3.4769814 49.202503
-2.7761045 -3.5242243 49.823574
-3.0430162 -2.7748253 47.969795
-3.1393125 -2.720006 48.538242
-2.9230268 -2.511048 49.405205
-2.661844 -0.89101034 43.78199
-2.6821928 -1.0293512 44.42247
-2.7230673 -1.0606313 45.649242
-2.8844903 -0.9216676 47.118683
-2.921379 -1.8539257 48.665695
-2.7105012 -1.768686 49.277283
-2.6370656 -0.34959543 43.224483
-2.809033 -0.36634582 43.802906
-2.9464092 -0.3350856 44.448475
-3.0694778 -0.38219288 46.678383
-3.0250773 -0.85448384 47.029606
-2.6063952 -0.33803904 48.1319
-2.8262873 0.36575213 43.692093
-2.926787 0.41565648 44.366512
-3.0515041 0.10233167 45.54887
-3.0424888 0.27426034 46.542965
-2.843659 0.22949216 47.34991
-2.6427395 0.94345653 43.91143
-2.5887146 1.3092418 44.916004
-2.7805912 0.9659305 45.68332
-2.8357596 0.84313846 46.430893
-2.6703284 0.8040926 46.999268
-2.2881105 -9.200305 40.72553
-2.2560678 -9.215277 41.579533
-2.1881425 -9.005358 42.189587
-2.0629885 -8.794733 42.67216
-1.8175735 -7.999468 38.937782
-2.3996193 -8.403822 39.865562
-1.9730159 -8.397388 42.798405
-1.9172853 -7.6447115 38.961815
-2.3539872 -7.5007243 39.75387
-2.5218532 -7.611139 42.500862
-1.9310081 -7.0184827 39.084293
-2.1716654 -6.881394 39.657658
-2.0525556 -6.403783 40.31269
-2.1611607 -6.444561 42.63729
-2.378591 -6.029048 47.98064
-2.5427706 -6.0961637 48.49849
-2.4293933 -5.93641 49.23496
-2.1969025 -5.7502723 40.95314
-2.2032309 -6.0265875 41.143208
-1.8921762 -5.329122 42.39822
-2.5626152 -5.3106894 47.510952
-2.504375 -5.63564 49.516964
-2.4142463 -5.369005 49.735012
-1.9154491 -4.8896422 41.140472
-1.8776249 -4.7872596 42.268143
-2.6116722 -3.9971554 47.31853
-2.2210138 -4.4202642 50.100792
-1.6373409 -4.1512856 42.13881
-2.2353995 -3.7962766 47.024155
-2.5008647 -3.3904428 50.17603
-1.780874 -1.9884514 38.21963
-2.0260572 -2.0674706 38.662
-2.192757 -2.1653872 39.534924
-1.9769993 -2.4193714 40.401737
-1.8716439 -1.9644701 41.039764
-1.8531808 -2.3025115 44.068825
-1.8788803 -2.603179 46.766064
-2.5957956 -2.9256353 47.446384
-2.1687398 -2.34007 50.376736
-1.863599 -1.2420748 38.09763
-2.226204 -1.3576512 38.63772
-2.4021413 -1.2906702 39.35162
-2.1646647 -1.6679144 40.466293
-1.7852447 -1.6721325 41.053207
-2.3344185 -1.2060692 43.45228
-2.2704957 -1.3911223 45.625072
-2.496898 -1.2429336 48.507217
-2.5833917 -1.8519692 49.683395
-2.1177382 -1.7214644 50.08133
-1.8004766 -0.5426499 38.195168
-2.2168903 -0.80964845 38.71238
-2.2630706 -0.6410523 39.32211
-2.207453 -0.97321826 39.99792
-2.576152 -0.08521022 43.15093
-2.3768806 -0.6807942 48.827408
-2.176154 -0.7703267 49.33229
-1.7511152 -0.67161554 50.01651
-1.8595607 -0.09077622 38.84338
-1.852458 0.03114593 39.23407
-1.9290636 0.50281763 42.406418
-2.4957166 0.6532547 47.731964
-2.0451555 0.38950697 48.461853
-2.088945 0.9859568 42.82726
-2.4087205 1.057721 43.602695
-2.363734 1.464337 44.50991
-2.4368737 1.4234842 45.663357
-1.9969682 1.1495856 47.571712
-1.6865065 0.8798101 48.356728
-2.0309699 1.8202188 44.11547
-2.0336864 1.9180402 44.637024
-1.8505845 2.2079897 45.514065
-1.9735029 1.8152634 46.656296
-1.5303633 8.14283 46.734356
-1.4413729 -9.557673 40.54007
-1.4836522 -9.554193 41.51587
-1.2285323 -8.860427 38.96271
-1.3242823 -8.925924 39.276196
-1.6257304 -9.511155 40.55616
-1.3845899 -9.302467 42.346725
-1.3498294 -8.924814 42.799473
-0.99565655 -8.160799 38.06722
-1.5256144 -8.336074 38.69365
-1.1477597 -7.59159 38.109486
-1.3478972 -7.3553314 43.184074
-0.8716376 -6.7254395 47.74271
-1.5124723 -6.5873075 48.720184
-0.95501375 -6.3816705 38.14927
-1.5898833 -6.934167 38.511944
-1.0187926 -6.1165147 45.57558
-0.9084555 -6.031689 46.104683
-1.4597874 -6.3901863 47.80734
-1.4066069 -5.9522386 49.480564
-1.5026854 -5.741691 40.071514
-1.0900419 -5.4405093 43.712337
-1.2493502 -5.6909814 46.30879
-1.7460169 -5.3796234 49.94149
-1.330116 -4.2217903 42.306725
-1.1859963 -4.50176 44.539436
-1.5166935 -4.4400673 50.389786
-0.8954823 -2.7218432 38.063953
-1.0083284 -3.5169454 39.388615
-1.2044328 -3.282943 42.137344
-1.6002558 -3.296789 50.725574
-1.3782642 -2.1930654 37.994892
-1.515182 -2.7470257 50.832687
-1.3939049 -1.5728863 37.834717
-1.3185815 -0.5321582 37.826633
-1.2538507 -0.17515455 50.395916
-1.2295773 -1.0049139 50.7541
-1.1384951 0.2835279 37.919758
-1.306026 0.5774729 38.63304
-1.2426752 0.5258413 39.52447
-1.0507824 0.5847361 50.34506
-0.77740157 1.1409459 37.972797
-1.0526814 0.8872398 38.454327
-0.9139485 1.1657814 39.833866
-1.3753948 0.75522685 42.185394
-1.6119409 1.1146803 42.66566
-1.4116318 1.1216516 48.46392
-1.2421848 0.92203593 49.053886
-0.9147023 0.8506986 50.422546
-1.0383164 2.3819714 43.825096
-1.5368574 1.9291608 46.567463
-1.5894623 1.8965453 47.03065
-0.9801153 2.7534952 44.525124
-0.9739324 2.9111638 45.621655
-0.5159615 4.173673 39.074097
-0.63822424 5.9104667 45.72662
-0.74652004 6.1583285 46.291584
-0.9081936 6.576969 45.830227
-0.94295627 6.6827245 46.386723
-0.8630639 6.7304525 46.972507
-0.87763345 7.3589096 45.149113
-1.1404444 7.4661613 45.85322
-1.2096145 7.353914 46.412064
-1.1493297 7.807111 47.235523
-0.76097035 7.6319203 47.72049
-0.6722915 8.351594 45.038216
-1.1594769 8.547816 45.743263
-1.4266243 8.508741 46.546413
-1.2813864 8.4379635 47.22625
-0.8664247 8.486255 47.719532
-0.9195707 9.313773 45.89493
-1.1285877 9.253638 46.615017
-1.0687244 9.125655 47.205315
-0.78864443 9.005804 47.691296
-0.7636249 9.670667 46.17758
0.038026467 -9.730967 38.839005
0.015759006 -9.563389 39.829353
-0.7664934 -9.66768 40.64928
-0.87205696 -9.592038 41.382004
0.397776 -9.714375 49.00713
0.016563118 -9.125614 37.67019
-0.5598391 -9.330993 38.64805
-0.7990589 -9.458643 40.249126
-0.9543867 -9.516645 42.02345
0.35525864 -9.182393 47.871395
0.26257384 -9.533888 48.73888
0.37366515 -9.535449 49.54314
-0.51430815 -8.0562725 37.581055
-0.2045083 -8.32922 43.021908
0.1792264 -8.790904 47.806034
-0.112565815 -7.8656063 37.34481
-0.2627283 -6.904834 44.403572
-0.3680764 -6.8866158 47.80981
-0.0701372 -7.2808366 48.245438
0.16636392 -7.885664 49.39187
0.2636218 -6.8377995 37.05949
-0.6848097 -6.478196 38.044323
-0.5393383 -5.808189 49.769756
-0.30013674 -4.0795064 50.31377
-0.20662132 -3.7200532 50.479725
-0.3536332 -3.1122642 50.713318
-0.5663418 -2.2489462 37.717003
-0.7482181 -1.4399292 37.662956
-0.32279223 -1.3458499 51.18674
-0.21382073 -0.2817894 37.215874
-0.058481365 -0.53634715 52.246597
0.27403855 -0.32078683 53.354145
-0.14642785 0.50663173 37.205517
-0.57637817 0.42039117 37.445427
-0.19704428 0.39945072 52.217438
0.2624094 0.5778539 53.35526
-0.04895018 0.8666048 37.244488
-0.56669545 0.9139416 37.579155
-0.5850469 1.0756007 42.036396
0.031669736 1.1083082 52.272762
0.33505395 1.2402016 53.075226
-0.07223815 1.9543965 38.06503
-0.076963276 2.0372002 40.182262
-0.7661839 1.909344 43.142662
0.12412303 2.5822093 43.390102
0.2303392 2.451189 51.00116
-0.3065402 3.9983797 38.553665
0.34038812 3.976121 40.793076
0.12175433 3.3803546 44.240707
-0.3068083 3.3589387 44.749535
-0.41984072 3.428471 45.635323
-0.20231402 2.858946 47.536003
-0.38329628 3.008152 48.662247
-0.3353562 3.3262455 49.480858
0.064606875 3.797982 50.29407
0.16852485 4.6320314 37.975597
-0.300467 4.547205 38.600132
-0.42033556 4.3451552 39.4134
-0.14986017 4.7023826 40.175858
0.12527177 4.595392 44.80509
0.13973516 4.7179003 47.854897
-0.13103455 4.329579 49.483887
0.2827987 5.403736 38.049366
-0.1895583 5.1312838 38.620754
-0.28594035 5.206544 39.31909
-0.20504317 4.921146 39.966026
0.21620402 5.7220135 43.047203
-0.030603379 5.6809196 43.74725
-0.4897305 5.8691874 44.821514
-0.25197494 5.4468875 45.106785
-0.23214033 5.3753633 46.407135
-0.1888398 5.480672 47.508224
0.06488469 5.411274 49.291134
0.2291232 6.084836 38.935673
0.08688849 6.496375 43.11751
-0.18623024 6.546255 43.75201
-0.37511906 6.6851354 44.301056
-0.4217044 6.3735313 47.363724
0.023155898 5.963613 48.495216
0.16331549 5.9520307 49.35613
0.022724926 7.1950393 43.341774
-0.10454753 7.4347177 48.22834
-0.06948647 7.8871827 44.146854
-0.33532387 8.508339 44.69954
-0.49116892 8.4684725 48.004707
-0.20568648 9.2158575 45.051163
-0.4608115 9.473164 45.41979
-0.5610986 9.47491 47.45587
-0.078335375 9.363247 47.88969
-0.2708779 9.820715 45.80974
-0.3287596 9.896277 46.502712
-0.22236368 9.8109455 47.21356
0.038054742 9.654323 47.6994
1.4293739 -11.785345 41.68771
1.3415117 -11.350695 42.343494
0.7198359 -9.940736 38.1039
0.75874436 -9.756069 47.688
0.72470814 -10.039338 48.802185
0.5766359 -9.915062 49.359222
0.8235399 -9.809924 49.852497
0.7973174 -9.091766 37.21072
0.8612846 -9.594325 37.63821
0.42433214 -9.070109 42.28341
0.6644091 -9.6041565 47.84854
0.8091634 -9.292636 50.15236
0.63186044 -8.188138 37.00225
1.1044686 -8.450622 46.708035
0.97212166 -8.446764 50.30414
0.7930122 -7.3860626 36.68509
0.40966928 -7.0775595 44.381496
0.85661304 -7.7162027 49.950096
0.7883674 -6.5269303 36.77251
0.9405833 -6.895768 49.793385
0.9917046 -5.911488 36.98694
0.5517298 -5.7584324 37.56695
0.496495 -4.850371 49.71197
0.600659 -2.7611685 38.04995
0.09573413 -2.2223442 37.656143
0.7933931 -1.196286 37.20029
0.6425464 -1.5263467 52.227695
0.6800172 -0.96208537 53.537037
1.0242543 -0.8895031 54.165073
0.6165558 -0.2522437 36.9653
0.4903304 -0.6014766 53.57943
1.0308995 -0.3406638 54.435608
1.2729665 -0.12693839 54.642235
0.51363075 0.51058 37.084217
[...]
POINT_DATA 7728
SCALARS features_00 float 1
LOOKUP_TABLE default
0.7395547 0.57199705 0.6783159 0.73445404 0.7457204 0.55128396 0.59523654 0.6848936 0.7020025 0.5641077 0.66355956 0.61458826 0.6752455 0.68229914 0.5755612 0.6462788 0.6638703 0.65127397 0.4960701 0.5575894 0.5824435 0.5797195 0.4237218 0.4688032 0.46254975 0.38644016 0.370104 0.37042826 0.32450193 0.3393257 0.33365527 0.45329338 0.4433465 0.4382701 0.39029586 0.33575222 0.27300245 0.47749662 0.46163663 0.44337636 0.4013908 0.33928242 0.45969385 0.4045157 0.4054171 0.38289884 0.345402 0.71538854 0.7335478 0.7230729 0.6941102 0.47238827 0.5638304 0.67092323 0.45771384 0.48159873 0.6839429 0.42643347 0.4394092 0.4442978 0.4693559 0.55288655 0.6351185 0.6654078 0.4090162 0.43144658 0.2365244 0.5126058 0.66517425 0.64871323 0.25389767 0.18797314 0.45867717 0.6034702 0.086599395 0.37081805 0.56071496 0.6043633 0.62472385 0.5874078 0.37887502 0.20608571 0.14964491 0.22172968 0.36829388 0.41933212 0.59177077 0.61701894 0.6080575 0.45243555 0.22716668 0.3204049 0.28186792 0.26657045 0.34490743 0.31506908 0.5578235 0.59078455 0.5762263 0.5409398 0.47325304 0.2285941 0.21405491 0.2119815 0.53731734 0.5119068 0.40225005 0.29302412 0.22982013 0.41413382 0.44746482 0.39924675 0.37219602 0.2676646 0.2131733 0.36319178 0.35147375 0.3102666 0.29655665 0.71633756 0.5835518 0.6473527 0.5030986 0.5268635 0.60775137 0.63426197 0.5991094 0.46265307 0.47916093 0.43941703 0.5228312 0.20445018 0.5456518 0.4008016 0.41552103 0.18642992 0.17370547 0.3452223 0.6214578 0.36896053 0.060747474 0.21029088 0.5858762 0.07452543 -0.06043213 0.53853023 0.52997905 0.5660725 -0.10204558 0.534288 0.5740035 0.470145 0.5721381 0.5361314 0.1897 0.22386602 0.49681443 0.4893341 0.40979642 0.13607566 0.41069296 0.45716077 0.20492846 0.2810635 0.33501375 0.17082042 0.1560987 0.10838011 0.23355761 0.2584344 0.22257538 0.22772028 0.22721896 0.51543355 0.27007297 0.3022827 0.3528899 0.38794 0.40341944 0.4528395 0.53494406 0.5354457 0.6322323 0.57057774 0.6298963 0.7625793 0.79047006 0.7336737 0.66728455 0.82146794 0.83048946 0.76745975 0.68772614 0.82867503 0.3527106 0.3320617 0.51938444 0.5725236 0.47872436 0.4689672 0.46017045 0.5048975 0.5905827 0.36242396 0.43971574 0.54809123 0.464906 0.33010918 0.34125644 0.47379985 0.0058943927 0.13896504 0.2718656 0.53256106 0.47550243 0.4120819 0.41267037 0.27340662 0.20658638 0.24111849 0.50473815 0.5362162 0.16996348 0.49229607 0.31245604 0.4218416 0.43731582 0.46135095 0.29994956 0.42981237 0.39730403 0.41536424 0.13879566 0.23871295 0.35108677 0.30451515 0.17589673 0.21501034 0.12229446 0.083505675 0.48248333 0.336352 0.03675928 0.08027394 0.08441135 -0.046956547 0.014626183 0.16266704 0.25978807 0.49015284 0.5227808 0.52793175 0.5296145 -0.0741269 0.1055079 0.24300294 0.52013695 0.53199434 0.54460776 0.5528609 0.21807387 0.19711685 0.2261318 0.17231084 0.20383874 0.21902293 0.2537771 0.51561177 0.3112046 0.3016775 0.31704777 0.3189555 0.24455906 0.25410226 0.3773201 0.41623235 0.4663086 0.5960518 0.6001475 0.6856373 0.7632003 0.7094865 0.60139805 0.78430974 0.79267246 0.7127603 0.61811453 0.4551469 0.42409155 0.3164454 0.38453913 0.47905582 0.53347266 0.60840356 0.47793627 0.39800915 0.2883936 0.38547978 0.63936555 0.5162596 0.13161938 0.52220917 0.5310178 -0.063113615 0.40650958 0.5046007 0.2489448 0.4766059 0.4238425 0.12866114 0.337397 0.4426228 0.43175995 0.22709295 0.38475883 0.41352755 0.4630328 0.4169309 0.46754616 0.49438608 0.41757518 0.51003504 0.36739722 0.3665401 0.4687483 0.19582865 0.27309176 0.112884946 0.29747373 0.2918973 0.29385218 0.2569062 0.009486847 0.18314084 0.4468276 0.18200244 0.5074735 0.25972927 0.25919914 0.51699924 0.517641 0.5079142 0.46373194 0.25460112 0.24269232 0.52947974 0.5224767 0.5104087 0.38268465 0.4844498 0.5791836 0.511829 0.64693266 0.6804522 0.6393662 0.5520457 0.41635877 0.44506937 0.3912468 0.37067297 0.27779618 0.29989088 0.4098155 0.39884287 0.35401046 0.5465162 0.30906406 0.20994443 0.27341238 0.13858747 0.37198034 0.45786005 0.5926199 0.5967305 0.5159414 0.45552948 0.0692545 0.036052465 0.1038371 0.60075533 0.5690242 0.5546745 -0.06581857 0.53476405 0.57427 -0.0600373 0.3710116 0.5572803 0.52904916 0.22353148 0.506927 -0.048993893 0.18665203 -0.11917214 0.05685177 0.104001045 0.19451983 0.078439526 0.16841057 0.2628905 0.38814607 0.33843762 0.30663466 0.39294422 0.4428033 0.5049332 0.6079792 0.38989422 0.6297933 0.69518477 0.26091388 0.47576421 0.6392482 0.71444523 0.15249723 0.09885919 0.35445166 0.5583503 0.6890578 0.14551242 0.3065193 0.08378654 0.44736755 0.17999071 0.5240833 0.17404152 0.15142415 0.52346116 0.5090352 0.45039862 0.07793245 0.22616254 0.16617964 0.104510434 0.15547729 0.30095 0.22253889 0.25130022 0.31304002 0.32580227 0.3129952 0.3817953 0.49853116 0.44968915 0.49371982 0.41718096 0.30051586 0.21770677 0.21811874 0.4091875 0.3996978 0.42273355 0.3409683 0.23352459 0.2669965 0.32001638 0.23616683 0.39635134 0.5855377 0.5858103 0.58845246 0.58242667 0.5056215 0.05819474 -0.18482994 0.58197653 0.57735944 0.5476749 0.5247265 -0.036112025 0.5615198 0.56301236 0.20074204 0.39914098 0.57039475 0.51352 -0.059921667 0.43870002 0.03562286 0.1795818 0.25440657 0.16951498 0.32434946 0.44909123 0.16750129 0.5522624 0.6626978 0.24385193 0.16475809 0.75496596 -0.0109809805 0.75477964 0.5807943 0.6977922 0.06388395 0.087677956 0.15100223 0.19634724 0.050171018 0.56195545 0.52745 0.5454852 -0.029041516 0.005360676 0.5921304 0.5808172 0.60022926 0.60162807 0.49390626 -0.071212724 0.5864559 0.5824884 0.59985274 0.59178066 0.6005059 0.41249737 0.4396795 0.28933913 0.52630347 0.5104048 0.5047862 0.50472355 0.4710225 0.38213593 0.098132536 0.16829179 0.19975574 0.3484141 0.47157517 0.4572923 0.42583033 0.4201175 0.18044764 0.1462717 0.38553816 0.44144922 0.29836094 0.41586053 0.48631787 0.48892444 0.46106744 0.44557804 0.39537865 0.24079177 0.27661175 0.46889526 0.4709186 0.2100888 0.09405176 0.49444294 0.55895305 0.57014215 0.5718498 0.57194567 0.43481022 0.5728259 0.50441563 0.45607358 0.5662738 0.5208267 0.46515387 0.21493326 0.5552751 0.41707468 -0.10925318 -0.06055776 0.06647885 -0.12331369 0.021774516 0.09680848 -0.05537517 0.15265152 0.21308063 0.30145642 0.3769576 0.5398203 -0.05324798 0.66163385 0.7450304 0.74464226 -0.15501016 -0.065212764 0.7487869 0.76101756 -0.03252054 0.62679005 0.6686852 0.030887933 0.09752807 0.4464041 -0.16495773 0.11729721 0.57226837 0.54573655 0.48973203 0.42597544 -0.021127757 0.04964391 0.61263055 0.59227073 -0.07333915 0.6138562 0.60898054 -0.01514783 0.14007837 0.5504671 0.5505787 0.5093936 0.056480963 0.32084966 0.27654183 0.4921472 0.4570797 0.38749266 0.36309344 0.3852257 0.055680115 0.051551145 0.47440198 0.42964622 0.42995402 0.35102892 0.41649723 0.32125285 0.44435194 0.50498664 0.52952397 0.5180434 0.41378787 0.4976344 0.3122503 0.3160776 0.33286583 0.3614707 0.4585287 0.43439472 0.3689214 0.22309813 0.27975184 0.30809557 0.47615167 0.4763136 0.13150576 0.42642152 0.3478607 0.5321256 0.38471007 0.526988 0.059447344 0.50100136 0.5291569 0.36793587 0.3631131 0.0056118555 0.112345494 0.010390803 -0.028423628 -0.16568907 0.14809738 -0.16838658 0.15504524 0.36870742 0.49935585 -0.16906849 0.4089104 0.6367674 -0.16722657 0.68890494 0.7130897 0.68358296 0.46954727 0.52791446 0.4758163 0.37073484 0.12747698 0.56703657 0.548821 0.20588528 -0.01591602 0.09152411 0.13779552 0.58489895 0.04125595 0.123299345 0.6328039 -0.28041595 -0.4389124 0.12596413 0.5761982 0.3004337 -0.12442767 -0.35264334 0.349061 0.5208474 0.45487052 0.28369915 0.28175113 -0.27858272 0.4517715 0.4116996 0.4156782 0.35367167 0.21601763 0.1326892 0.31398135 0.34446394 0.40355384 0.30904034 0.41716635 0.47959465 0.518046 0.52192974 0.2841488 0.15199319 0.27023122 0.38088256 0.4338857 0.44794396 0.43405437 0.42822444 0.46917242 0.2573178 0.38034827 0.4159143 0.44566202 0.43769085 0.36104304 0.3617469 0.34629476 0.34806132 0.37359902 0.44061452 0.4173451 0.2784127 0.32567078 0.43487942 0.45283812 0.26505977 0.114269294 0.41640556 -0.01380714 0.033362377 0.2986536 0.27448338 0.30454808 -0.03219456 0.1858415 -0.09233812 0.2007838 -0.09252596 0.35246983 0.041496094 0.31056675 -0.049509555 0.03350122 -0.026437193 -0.11153226 0.0072260126 0.081397764 0.023275394 -0.04330769 0.5981107 0.48612764 0.4347533 0.6057455 0.52138627 0.5127967 0.43636167 0.36970735 0.595475 0.5165701 0.44934294 0.39092758 0.3679486 0.07608598 0.23494187 0.20849644 0.2583227 -0.22176489 0.24262005 0.25995174 0.4671294 0.46601093 0.19620763 0.54790914 0.51341677 0.15355128 0.5561724 0.5183593 0.55222404 -0.24744761 -0.5488168 -0.09097079 -0.23831591 0.3813702 0.5192226 0.0996888 0.32590413 -0.2164704 0.47616458 0.4303108 0.44335115 0.39689228 0.027162556 -0.095891014 0.24557939 0.39277697 0.41613114 0.1602638 0.3324105 0.45442125 0.48461843 0.5077398 0.27328992 0.2276376 0.06494952 0.007211771 0.11600965 0.37989578 0.44943786 0.45487475 0.05590959 0.110941224 0.20039609 0.36849713 0.4107106 0.3902826 0.43696827 0.17566359 0.22402288 0.27561975 0.36970514 0.39648005 0.352449 0.36749315 0.37560087 0.42151842 0.2482185 0.34651133 0.40436685 0.4329251 0.43907592 0.16281143 0.22389409 0.42974865 0.3860699 0.36089253 0.31987047 0.27590787 0.10682866 0.25800988 -0.05413744 0.04800057 0.11836172 0.09907361 0.17371759 0.00046135392 -0.021938203 0.1529657 0.2587553 -0.025332479 0.3303423 0.30801648 0.041426275 0.2750979 0.30979896 0.067614004 0.25011402 0.11386627 -0.043878116 0.030533563 0.074490085 0.064554855 0.097398624 0.15890247 0.39873445 0.28152943 0.060855746 0.17800266 0.48077554 0.4788968 0.44696957 0.3775885 0.48571983 0.51218337 0.18225828 0.44260335 0.4974744 0.4380978 0.33725095 0.41765237 0.3738923 0.41800758 0.36132634 0.3173708 0.4198083 0.46430132 0.46435612 0.13461721 0.20354688 0.48493573 0.48832107 0.096300684 0.47461805 0.46656796 0.48181167 -0.15008578 0.039949417 0.18533705 0.43198985 0.030654311 0.15879136 0.3386433 0.34398207 0.3989901 0.4074846 0.7788211 0.7780447 0.76931345 0.35524994 0.20847669 0.3933156 0.42751595 0.38156378 0.79072523 0.79598516 0.7786442 0.06787145 0.07195813 0.24674001 0.330521 0.39899856 0.418349 0.4123062 0.16039497 0.25032324 0.28985044 0.27186143 0.29125783 0.2935511 0.29808947 0.35009623 0.40764862 0.4336446 0.30831885 0.3668478 0.5037646 0.52639824 0.26659358 0.23886965 0.5269491 0.13381104 0.47294486 0.12587729 0.05869161 0.08903174 0.12975836 0.073487684 0.12536794 0.13970271 0.032257505 0.066034496 -0.039343268 0.12243852 0.18953383 0.23922136 -0.039001487 0.29004273 0.28565192 0.12423255 0.086555466 0.10957745 0.13805896 0.13138154 0.13970438 0.15803948 0.005833715 0.38107556 0.29130065 0.16915497 0.14927188 0.44906902 0.4376115 0.43651298 0.40887982 0.37398803 0.44216055 0.4675508 0.1541671 0.43897027 0.42366683 0.35989958 0.14700373 0.2848491 0.43171018 0.44218886 0.113691255 0.12290068 0.4422984 0.40106577 0.07262831 0.130331 0.43799067 -0.2556868 -0.08993128 0.16461596 0.26633558 0.24152867 0.19565432 0.6707046 0.72264946 0.7002715 0.39703017 0.2739977 0.32762486 0.6450021 0.75224644 0.7686265 0.7329577 0.67004 0.2520789 0.13377236 0.30874586 0.73453283 0.7868128 0.8034135 0.77037776 0.7388022 0.04642056 0.0118218735 0.012700714 0.10321432 0.33203727 0.37726325 0.40110254 0.39693892 0.8192138 0.8133607 0.78369117 0.054770567 0.021891322 0.08635436 0.19120723 0.21805555 0.38204357 0.14885584 0.28232676 0.34563053 0.37415934 0.33168042 0.25556135 0.30316436 0.36787575 0.38382995 0.36427826 0.4143485 0.41595578 0.47097656 0.5565412 0.37753314 0.555981 0.59745723 0.26042396 0.6062586 0.6620559 0.12876229 0.01896718 0.5414699 0.050963115 0.20889613 0.304412 0.07655546 0.09516141 1.1768192e-05 0.07198816 0.10997018 0.052162316 0.058719683 0.029895259 0.06996475 0.1100322 -0.033297196 0.19706596 0.25490746 0.2437601 0.19730371 0.18658452 0.17500168 0.11713569 0.12889944 0.09974992 -0.09532654 0.15213762 0.29169643 0.17498814 -0.008063249 0.31668836 0.082261994 0.3401096 0.3549991 0.12527442 0.3204887 0.3710131 0.2830486 0.28309205 0.43654215 0.13983613 0.44922733 0.42836723 0.44088298 0.47450522 0.5994419 0.64685065 0.61268806 0.31106097 0.190505 0.35897025 0.38010883 0.45994234 0.6243713 0.6499569 0.5827331 0.5602317 0.37435532 0.32054287 0.16647874 0.33336905 0.46945632 0.566394 0.59840715 0.5493288 0.52512926 0.15909463 0.24987367 0.23692024 0.2408756 0.4976314 0.4390247 0.26699582 0.15803674 0.1746903 0.4175809 0.50553685 0.5608227 0.0077339904 0.50066686 0.60338753 0.33162534 0.61709666 0.6832143 0.3514681 0.32816625 0.16753243 -0.049290515 0.32212976 0.35760993 0.3299691 0.3272246 0.79557955 0.81824565 0.750841 0.68959403 0.3514017 0.3275297 0.241925 0.05540075 0.13062279 0.3405298 0.3446938 0.33966824 0.75090915 0.20550548 0.08731958 0.02747897 0.09049177 0.19726013 0.22317183 0.1660499 0.25852367 0.342414 0.3692717 0.34159315 0.2458331 0.5219921 0.51139283 0.5395833 0.56438243 0.61039174 0.51664376 0.5112423 0.64951706 0.65942717 0.45675337 0.6712893 0.67296016 0.65092826 0.021777777 0.039033495 0.4447466 0.53185946 0.15406995 0.11999749 -0.29528233 0.07856449 -0.0049406034 0.3285659 -0.024428712 0.20408079 0.36066583 0.36436856 0.29645765 0.3779097 0.45451808 0.32218423 0.4283588 0.31684658 0.3041309 0.22952574 -0.095103696 0.1471297 -0.01987569 0.10980351 0.093771964 -0.03876826 0.15491503 0.2376145 0.2552381 0.29417533 0.29395738 0.20836733 0.33641547 0.25370198 0.07931357 0.31256777 0.5581378 0.57143927 -0.041698977 0.28473184 0.37089527 0.4697808 0.5407606 0.58916354 0.5892464 -0.163426 0.3510266 0.45791775 0.53194624 0.6223355 0.5834146 0.2612694 0.31984743 0.39292908 0.5397591 0.26194483 0.49462634 0.088732906 0.28674093 0.31650686 0.2229642 0.44161767 -0.17777154 -0.066766344 0.18952954 0.26832414 0.3131677 0.19023763 0.2338484 0.2626688 0.10918931 0.1232256 0.20936015 0.24463648 0.46575224 0.3099158 0.3059107 0.19548434 0.22886558 0.5939325 0.5047404 0.336114 0.34291196 0.21000652 0.17035097 0.19311902 0.5913334 0.6184473 0.3464061 0.36173785 -0.008230161 0.29538685 0.28314763 0.2627676 0.6393894 0.6291477 0.6874161 0.6303903 0.36955062 0.31770986 0.21188226 0.02974455 0.2228682 0.10767943 0.3594175 0.30351868 0.10186583 0.03620291 0.030457914 0.15865764 0.23546147 0.26347834 0.26557916 0.20519598 0.554093 0.59240294 0.6118774 0.6396177 0.6320937 0.5562686 0.5785517 0.6719196 0.6866094 0.5148239 0.69239354 0.42906147 0.6743977 0.58048964 0.17451301 0.2236277 -0.24141984 0.17734432 -0.09741786 -0.038859457 -0.009308681 -0.056687444 0.31536326 -0.06692726 0.06943292 0.2910108 0.51671565 0.5757428 0.45861268 0.43214592 0.4025784 0.5192821 0.58269846 0.6358207 0.43288535 0.58713293 0.6219949 0.39523605 0.6037102 0.32691905 0.56089616 0.1693671 -0.0047040246 0.16671494 0.2828354 0.22790086 0.08200086 -0.16359898 0.26265994 0.28859094 0.37375176 0.18759772 0.41337627 0.120224334 0.2791423 0.028590754 0.17976308 0.52729565 0.5475586 0.5274053 0.16273735 0.124210514 -0.12128844 0.2249123 0.4346481 0.53431463 0.055872865 0.17913221 0.27378893 0.17194001 0.1545872 0.28445867 0.5016429 0.3005352 0.41298145 0.3645035 0.16010003 0.27024674 0.13498999 -0.14322533 -0.22907071 0.03853454 0.210987 0.36722535 0.11297453 0.23889527 0.1926526 0.2263294 0.055023417 0.14256111 0.2782331 0.27842787 0.18663175 0.09828018 0.43727905 0.3126638 0.029416405 0.21748641 0.2129027 0.5235781 0.35790157 0.0017968714 0.028361104 0.051790126 -0.10096582 -0.049246144 -0.061921168 0.22428662 0.39679334 0.44435176 0.49106044 0.54999006 0.40014035 0.3863577 0.059781063 -0.033477508 0.051125117 0.4145974 0.36501598 0.31341997 0.19514622 0.06270219 0.02636886 0.025223847 0.0029622465 0.04944205 0.14289601 0.13940723 0.19442295 0.3571313 0.32208073 0.02579714 0.08718445 0.6302429 0.67404693 0.6910403 0.5721878 0.58788633 0.64002264 0.692976 0.7181597 0.7268239 0.54760915 0.57252645 0.7326104 0.7112263 0.50362605 0.5039319 0.6886132 0.70687014 0.23059958 0.2558641 0.25756374 0.03538318 0.18619585 0.229905 0.034409627 0.1395447 0.11897528 0.47673115 0.44775343 0.117439754 0.11096279 0.016644329 0.35856605 0.6405554 0.6806512 0.67565835 0.49888912 0.49402702 0.6570806 0.6596675 0.4932532 0.6595779 0.42573476 0.45365402 0.64650273 0.61431575 0.22801727 0.25641918 -0.17906037 0.2335275 0.27897578 0.19156225 0.20424712 0.280847 0.35062248 0.3023302 0.31142548 0.33108103 0.35320243 0.40430248 0.67551947 0.24575898 0.43925956 0.5245118 0.5962421 0.6341497 0.16208792 0.32490823 0.38263196 0.51656485 0.5373837 0.32438064 0.3059544 0.1950997 0.25810736 0.32332072 0.39781994 0.4674735 0.4808244 0.4588582 0.43106836 0.4352776 0.24805382 0.09499264 0.29075196 0.4219011 0.28468186 0.16017857 0.01324109 0.26160806 0.13974254 0.12572722 0.11781932 0.28353855 0.18430439 0.057098716 0.008601619 0.33920643 0.08725901 0.080798954 0.03975665 0.3013339 0.33673203 0.34155607 0.010832405 0.17219497 0.17795223 0.06819653 0.15872166 0.026687525 0.27965793 0.23951256 0.029658537 -0.04029789 0.34287935 0.31881756 0.3019157 0.1882324 0.13492797 0.13829094 0.39192587 0.3662886 0.08932352 0.0398066 0.20919608 0.19420329 0.23590226 0.00039672852 0.37528977 0.4337309 -0.0028946176 0.13071974 0.20339173 0.3684771 0.23575082 0.24910067 0.22143576 0.1787162 0.25424993 0.46051192 0.43038458 -0.08135274 0.0069194734 0.043568306 0.18202364 0.35350603 0.45151135 0.47985715 0.27169263 0.31816727 0.28952911 0.24806678 0.37704384 0.3435866 0.27368724 0.14439858 0.018407488 0.0294743 0.025824491 0.00576891 0.01565297 0.020676894 0.02526088 0.4662587 0.35289055 0.3667994 0.32299873 0.31621423 0.6183539 0.64845145 0.69740915 0.74232686 0.7537055 0.043247137 0.40664792 0.41772503 0.4202515 0.39074823 0.649634 0.66896737 0.68468356 0.7119572 0.73536885 0.40922663 0.47588652 0.4806036 0.51986563 0.6420317 0.64509773 0.6394822 0.657915 0.6965549 0.51051337 0.5724078 0.6078923 0.66603416 0.7028389 0.72091585 0.6071478 0.6516664 0.70320284 0.72124434 0.72774816 0.66720915 0.71156114 0.23279089 0.18721683 0.21058612 0.18880934 0.22184408 0.25729138 0.2597039 0.49993795 0.4769821 -0.033966783 0.09140974 -0.015277807 0.05524218 0.23137851 0.24727185 0.15296158 0.22118573 0.44346517 0.6501723 0.67732966 0.67396355 0.516205 0.5128882 0.017648257 0.6654703 0.6655669 0.5027264 0.6556604 0.6631615 0.4253472 0.650288 0.65809286 0.2946245 0.62527406 0.21557581 0.16171354 0.25964257 0.37314487 0.31358343 0.19810557 -0.016872242 0.30944562 0.39692292 0.38877505 0.33367535 0.3574561 0.7637423 0.7694503 0.8090941 0.85350084 0.307716 0.36213636 0.43099236 0.7433429 0.74402505 0.74611384 0.81392044 0.8366257 0.25628597 0.4545374 0.66992015 0.55050284 0.59226584 0.6921108 0.782063 0.28623134 0.35697782 0.39414793 0.61443067 0.46961102 0.48788416 0.5789553 0.61078066 0.33455884 0.115715355 0.3016187 0.27817976 0.30639562 0.3875478 0.4403238 0.3936447 0.40836722 0.45007944 0.46509954 0.45068797 0.3125698 -0.3512706 0.2666112 0.34949556 0.14113115 0.2557667 0.318068 0.35830835 0.3449998 0.22618167 -0.013217336 0.24274135 0.21959142 0.1815558 0.18634829 0.23789954 0.048162602 0.053917404 0.10435687 0.22613506 0.16498497 0.17627811 0.15771994 0.051147804 0.2819269 0.06035701 0.10085291 0.15612897 0.16945092 0.08491477 0.054363076 0.30473238 -0.12678753 0.028487235 0.14237495 0.09317833 0.08166982 0.3500403 0.3220374 -0.12181029 0.21399972 0.6620998 0.17781669 0.3034914 0.3882749 0.37982982 -0.08412486 0.6681708 0.6110357 0.25854743 0.14026742 0.38348547 0.43405816 0.48561698 0.30350015 0.6517919 0.6134333 0.3277246 0.31728482 0.09124422 0.0103382375 0.026816728 0.32606632 0.34704006 0.3619745 0.13642621 0.16458267 0.39704612 0.012141634 0.28844664 0.4105447 -0.08443544 0.35310578 0.091314554 0.060620155 0.60130054 0.56641823 0.52027905 0.09336616 0.17394488 0.4501102 0.18232733 0.49930376 0.41431206 0.60988617 0.58403045 0.4822607 0.19368544 0.43969 0.5538405 0.5873117 0.6506752 0.35929608 0.28945053 0.2283144 0.009440433 0.005393606 0.0040493496 -0.042184107 -0.111493416 -0.05237232 0.06934231 0.24999662 0.4040985 0.5210819 0.53702307 0.57489693 0.4261065 0.32150146 0.3171855 0.