# vtk DataFile Version 2.0
Really cool data
ASCII
DATASET POLYDATA
POINTS 4345 float
-7.5916085 29.064968 37.61025
-7.865486 29.792105 37.496952
-7.7874703 29.921026 38.611526
-7.8753123 30.647768 36.140396
-8.131734 30.701382 36.65259
-8.229067 30.792635 37.3866
-8.012461 30.697578 38.1521
-7.669853 30.348288 38.831333
-7.8728337 31.45562 36.04454
-8.154527 31.393011 36.582047
-8.181522 31.529507 37.408627
-7.9476504 31.322393 38.122803
-7.7884235 31.907816 36.105698
-7.849249 32.260178 36.623276
-7.9778137 32.175476 37.24228
-7.6620593 32.83816 37.22446
-6.5373673 26.283634 36.58735
-6.525286 26.759333 37.101234
-6.5720196 27.47214 37.312675
-6.660959 27.987394 38.081135
-6.644783 28.126282 38.85186
-7.321177 28.943605 36.884857
-7.311838 28.658047 37.42138
-7.2237363 28.790358 38.61827
-7.0739408 29.132082 39.272373
-6.862598 29.331474 36.151352
-7.3792624 29.31361 36.68991
-7.302501 29.823566 39.25508
-6.923843 30.95412 35.387333
-7.363144 30.75133 35.672295
-7.339041 30.495062 39.315773
-6.814687 30.294666 39.736618
-7.1671095 31.165743 35.37315
-7.392729 31.39619 35.626984
-7.095221 31.383852 39.17512
-7.378472 32.29925 35.997883
-7.5299416 32.765987 37.650074
-7.356942 32.52159 38.237804
-6.9363313 32.07027 38.913635
-7.164106 33.34323 36.71291
-7.246454 33.350082 37.45091
-7.073255 33.1736 38.067097
-6.8215175 33.712082 36.781887
-6.894328 33.73522 37.525185
-5.62441 23.954565 37.01102
-5.739445 24.115738 37.29194
-5.803145 24.6967 36.548977
-5.905038 24.381071 37.43888
-5.95166 24.76958 37.90019
-5.5243125 24.775995 41.414757
-5.939273 25.769833 35.804092
-6.2656894 25.721464 36.507843
-6.2155013 25.763174 37.270206
-5.6210647 25.567636 38.99888
-5.5267835 25.47944 41.61029
-5.545184 25.47354 41.9863
-6.1595054 26.514814 35.826458
-6.4443464 26.612625 36.268627
-6.3418574 26.5949 37.341442
-6.1431537 26.409056 38.174614
-5.9705095 27.319418 35.7123
-6.4003153 26.968088 36.417973
-6.4297304 27.642315 38.630634
-5.685488 27.300566 39.223495
-6.702543 29.22298 36.086494
-6.594119 28.532015 39.16433
-6.226803 28.75062 39.967964
-6.546665 29.999723 35.58721
-6.7674375 30.687283 35.295662
-6.4292 31.34347 35.21676
-6.8223333 31.828993 35.467045
-6.6190486 31.408451 39.42054
-6.580062 31.883678 35.358574
-6.337763 32.48554 35.60882
-6.1644254 32.58795 39.128506
-6.437465 33.34724 36.126137
-6.2558084 33.439022 38.497597
-6.09176 33.1099 38.870083
-6.4656734 33.86075 36.77832
-6.4049873 33.937695 37.3701
-6.1216493 33.69971 38.22788
-4.58869 21.027843 40.603905
-4.6644874 22.079058 39.020607
-4.713314 21.788378 40.01666
-4.7797832 21.654594 40.56323
-5.010003 22.089697 41.697826
-4.852023 21.961576 42.1955
-4.8327713 22.885958 37.434402
-4.9079976 22.82598 38.29582
-4.924908 22.862074 40.86042
-5.0888586 22.479979 41.43753
-5.1782255 22.836655 42.32288
-4.87418 22.470827 42.98692
-5.0093803 23.985323 36.32653
-5.3322697 23.690279 36.915703
-5.456381 23.484573 37.37364
-5.5082655 23.652987 38.201977
-5.0303783 23.445923 39.97729
-5.3219514 24.040258 41.784115
-5.241061 23.292994 42.327114
-5.1186485 23.610298 42.85539
-5.1161532 24.5132 36.002827
-5.4235563 24.310144 36.44946
-5.3723497 24.62212 42.33802
-5.0480547 24.386402 43.058006
-5.086467 25.404322 35.506683
-5.045389 25.461996 40.09686
-5.4924645 25.148258 41.45113
-5.392029 25.579203 42.664455
-4.982549 25.595951 43.411243
-4.7158737 25.132362 43.675472
-5.122839 26.470772 35.211834
-5.474185 26.044842 42.313892
-5.0232773 26.595936 43.650246
-4.8094444 26.986494 44.34262
-4.662214 26.81241 44.74786
-5.5969186 27.197912 35.5756
-4.988413 27.177391 43.60502
-4.7947183 27.368744 44.407043
-4.7088523 27.202793 44.738907
-4.987803 28.661884 35.81687
-5.5269217 28.19844 40.520702
-5.41051 28.731178 41.00122
-4.6701584 28.522583 42.070415
-4.6942577 27.983925 44.125187
-5.6646614 29.800793 35.674774
-5.537302 29.101229 40.74662
-5.4666533 30.882767 35.304813
-5.0537815 30.51622 40.20356
-5.563097 31.356457 35.285957
-5.569832 31.289883 39.743465
-5.8659973 31.956661 35.317307
-5.2941217 32.78871 35.71372
-5.6187825 32.065697 39.437183
-5.5711513 31.854568 39.55867
-5.674857 33.38237 36.02855
-5.820609 33.555687 38.594852
-5.7200174 33.03948 39.01107
-5.808296 33.884323 36.70558
-5.662418 33.96418 37.10791
-5.666799 33.758537 38.12305
-3.6668613 18.73093 42.728123
-3.669623 18.879446 43.712456
-3.724584 19.5436 42.253902
-3.8134296 19.278381 43.463737
-3.5971537 19.761305 44.454914
-4.0959187 21.236685 38.806404
-3.9873614 20.715523 39.683323
-4.405091 20.72773 40.655304
-3.8332875 20.522741 43.360867
-3.7531905 20.505066 44.210007
-4.0281982 21.719975 37.712173
-4.4877725 21.946632 38.597027
-4.4919643 21.4555 39.51655
-4.1286855 21.520931 43.238216
-3.7387695 21.450203 44.285606
-4.259976 22.777946 36.903828
-3.8604987 22.543789 43.753914
-4.358677 23.811947 36.02392
-4.2393947 25.13178 35.28348
-4.7989697 24.645454 35.708515
-4.232552 24.413292 43.89662
-4.1539497 25.47535 35.26254
-3.9392922 25.828499 44.904427
-4.5329876 26.373383 35.091293
-4.1908464 26.71466 45.138313
-4.298331 27.376074 44.990818
-4.373278 28.391846 44.043236
-4.067665 28.017723 44.95917
-4.616783 29.423998 41.222115
-4.1681595 29.146532 42.223038
-3.9697475 28.804655 43.85591
-3.8828878 28.739504 44.24218
-4.8948793 30.593536 35.654774
-4.739913 31.08324 35.67701
-4.922887 32.36306 35.77365
-5.084895 33.544033 36.45003
-4.625149 33.477497 37.469776
-4.931262 33.375404 38.27427
-4.964011 33.693874 36.87541
-4.940114 33.67926 37.355827
-2.8724504 18.112059 42.02727
-3.078753 17.997532 42.59078
-3.1114628 17.937302 43.437862
-2.949299 17.961315 44.021786
-3.1878119 18.699776 41.871433
-3.4899552 18.535656 42.84384
-3.448613 18.339952 43.470654
-3.2619667 18.657307 44.267334
-2.8875592 18.762705 44.749416
-3.2737007 19.30727 41.515762
-3.470599 20.05307 44.727734
-3.1580873 19.642231 44.962494
-2.6351259 20.763128 35.72471
-2.812502 20.593454 36.477787
-3.2300746 20.870275 37.527184
-3.539551 20.125336 44.6371
-3.0047061 20.43604 45.31082
-2.965183 21.365513 36.13905
-3.110882 21.53032 36.30601
-3.5329907 21.024282 44.67176
-3.2520995 21.283361 44.95441
-3.0305376 22.216145 35.935795
-3.1837182 23.505022 44.110943
-3.3742182 24.602007 44.159546
-3.2199976 25.37357 35.340515
-3.3968332 25.862852 45.223843
-3.6036026 26.7803 45.450962
-3.1967685 26.303482 45.572502
-3.4206228 27.337566 35.209686
-3.4025848 27.470068 45.474884
-3.028731 27.471766 45.60119
-3.2397108 28.00332 35.4472
-3.5459406 28.176035 45.10372
-3.6686022 29.378002 42.69092
-3.3754728 28.892752 44.245686
-3.1489964 30.081367 36.0384
-3.5362465 31.419958 36.5071
-4.2086515 32.57236 38.351055
-4.288275 32.83468 36.46118
-2.044111 17.354195 43.336807
-2.433563 18.056173 41.668175
-2.6481466 17.603369 42.806133
-2.5603929 17.537838 43.53077
-2.5462983 17.881647 44.197666
-1.8274829 18.672392 35.1193
-1.8128446 18.69053 36.23086
-2.2114105 18.484175 41.14416
-2.4802365 18.705555 44.904938
-1.9726801 19.602064 34.847584
-2.2951362 19.901258 36.61609
-2.0411105 19.426567 45.499115
-1.9066463 20.304304 34.631195
-2.4000783 20.473015 35.343956
-2.6558633 20.3485 45.472366
-2.3700027 20.484688 45.586002
-2.4476945 21.243608 45.371998
-2.2308326 21.8656 45.150723
-2.0201585 24.084463 35.220905
-2.5489874 25.943619 45.400356
-1.5845063 26.941103 32.219822
-2.5673523 26.418516 35.089344
-2.698843 26.448652 45.61618
-1.6606851 27.43088 32.092064
-1.8517717 27.61833 32.778946
-1.9419677 27.287846 33.524914
-2.2732177 27.61694 34.67556
-2.310682 27.245726 45.59961
-1.7061385 28.170689 32.373608
-2.186658 29.396843 35.60556
-2.6351326 29.144695 44.16864
-1.6755705 30.732243 35.481815
-2.3450043 30.513622 42.11458
-2.085723 30.631823 42.96516
-2.7084246 31.1543 37.375095
-2.1345584 31.29079 38.828644
-2.7796223 31.004349 40.161713
-1.88964 31.355032 41.809826
-2.244803 31.070131 42.008472
-2.0974946 32.563465 40.909866
-1.641015 32.69191 42.285686
-1.5673385 33.673485 40.896408
-1.6968952 33.247494 41.63403
-0.94500303 16.923502 33.918865
-0.9690106 16.64762 34.53134
-0.91060954 16.723202 35.2719
-0.8815801 17.153711 35.86377
-1.5282989 17.322636 41.84105
-1.2219323 17.105453 42.458176
-1.5063069 17.295115 43.300716
-0.6448865 17.602106 33.104576
-0.9410926 17.324192 33.739456
-1.3588605 17.811966 34.524067
-1.2164739 17.421194 35.313145
-1.1635859 18.01722 36.308025
-0.98234427 18.145836 36.95647
-1.5113254 17.47674 41.54295
-1.5277699 17.891233 44.2744
-0.7567103 18.304052 33.151943
-1.1087079 18.302614 33.83684
-1.5144926 18.61748 34.410763
-1.4925929 18.328802 35.10475
-1.5275108 18.425667 36.66801
-0.9472351 18.570799 37.33158
-1.1756504 19.056417 37.720207
-1.3112679 19.120361 40.3107
-1.5434935 19.003418 40.480663
-1.679353 18.99266 45.22299
-1.2253027 19.719322 33.90282
-0.8636889 19.463163 39.88952
-1.2018166 20.76404 34.19729
-1.328041 20.529228 45.887222
-1.1323797 21.10805 34.217865
-1.3698468 21.679733 34.51714
-1.6176645 21.665215 45.390247
-1.3926826 22.676704 34.428566
-0.9323118 23.15459 34.17443
-0.6988362 23.806473 45.901375
-1.7317696 23.888409 35.20396
-0.6969814 24.854046 50.5581
-0.5885839 24.766706 51.016605
-0.90700024 26.001009 31.801933
-0.8358029 25.794579 32.504925
-0.74153984 25.643347 50.069492
-0.809109 25.591776 50.44584
-0.7205727 25.427242 51.09538
-1.1848127 26.726233 31.691517
-1.5606815 26.900057 32.209644
-2.0405455 26.260471 45.381374
-0.65888697 26.207014 49.88975
-0.73883337 26.643991 50.57985
-0.635654 26.806063 51.14832
-1.0977764 27.46962 31.100605
-1.2381343 27.648857 31.353533
-0.5630332 27.381916 50.00365
-0.63042104 27.268902 50.54831
-0.61991274 27.071714 51.139263
-0.85297394 28.524984 30.65122
-1.3679364 28.433216 31.568115
-1.5376285 28.477327 45.208138
-0.8222761 29.209452 30.763767
-1.0266188 29.389372 31.475653
-1.2540591 28.8776 33.062756
-0.9947911 28.896856 45.492195
-0.7570493 29.924524 31.642956
-1.0463715 30.365309 44.342125
-1.5742233 31.411678 35.545418
-0.9343197 31.396006 44.016212
-1.191459 32.21283 35.600517
-1.4287176 31.788435 37.620445
-1.5617945 32.70987 42.313007
[...]
POINT_DATA 4345
SCALARS features_00 float 1
LOOKUP_TABLE default
0.4820972 0.6151805 0.5467761 0.67239714 0.71749675 0.70927435 0.6358916 0.5685677 0.69644344 0.7382194 0.73656464 0.6683258 0.7216288 0.7768012 0.7633708 0.7896794 0.41146237 0.29351684 0.2122632 0.21900721 0.25505444 0.45899555 0.36841702 0.39418384 0.3867641 0.55661315 0.5717181 0.4796257 0.62370324 0.6372048 0.5316473 0.4481826 0.63831615 0.6586329 0.55807734 0.7376562 0.76142156 0.7003704 0.5874697 0.8330974 0.80529195 0.75403523 0.8560165 0.8242612 0.3460552 0.3446045 0.42445016 0.3540687 0.3389393 0.20436104 0.5205945 0.45954937 0.3830048 0.09751195 0.20455071 0.24129064 0.5031504 0.43350828 0.27575696 0.17281237 0.4328819 0.38576227 0.18822807 0.12301039 0.51527834 0.28736818 0.27246636 0.6039544 0.60988855 0.6135335 0.65087533 0.4937292 0.6439235 0.7095835 0.5812223 0.8531995 0.73372054 0.6593889 0.86672556 0.8482543 0.7840347 0.1724272 0.12360348 0.16331625 0.17882793 0.2310737 0.24692664 0.19608484 0.16062915 0.21436527 0.2304892 0.25667888 0.2588802 0.3437202 0.3177544 0.28788507 0.24309455 0.16336586 0.2393775 0.26390788 0.28471106 0.41503716 0.39082372 0.26315665 0.30031082 0.4874622 0.050541207 0.19816771 0.28306854 0.3322035 0.3436536 0.5104017 0.26046675 0.3748772 0.492508 0.5094803 0.47693336 0.39837694 0.5251102 0.5402725 0.17886682 0.20764458 0.17461564 0.119583815 0.50041515 0.518244 0.22480147 0.56664634 0.2827612 0.5895839 0.41169208 0.62931657 0.72211677 0.4964936 0.46765208 0.8280883 0.72920495 0.62766075 0.85746956 0.8456819 0.7894953 0.5468061 0.57282275 0.44265783 0.534765 0.49996874 0.101550534 0.13949591 0.16998905 0.3762428 0.41729957 0.07339443 0.09667134 0.13677554 0.27318358 0.3461914 0.16261643 0.2348671 0.29881197 0.4079681 0.42336002 0.3086388 0.40405035 0.45252782 0.4280187 0.53067094 0.56946146 0.45774478 0.57919735 0.04808096 0.06505987 0.36369818 0.43379995 0.46691734 0.48662764 0.6231996 0.8202996 0.78166294 0.72727656 0.82264364 0.8066479 0.5403588 0.5765908 0.61697805 0.62843597 0.48974127 0.566242 0.5991733 0.59289163 0.58521974 0.3992597 0.48374358 0.52664953 0.21446067 0.16791464 0.119641826 0.47316873 0.48065388 0.14643331 0.12829171 0.40741098 0.40562087 0.13466465 0.1962674 0.2837428 0.25224566 0.46272886 0.53763795 0.5039114 0.1671684 0.5615028 0.5357584 -0.0010736361 0.5741777 0.058095418 0.38501865 -0.10038179 0.29238486 0.6518969 0.7008145 0.63110185 0.5215322 0.6086153 0.63740873 0.63599944 0.44615453 0.4189256 0.45112962 0.580414 0.32581258 0.2852874 0.5123765 0.2509534 0.25057885 0.4950722 0.4873072 0.43704405 0.3506059 -0.09281887 0.4470778 0.36238074 0.20184511 0.49856693 0.38583705 0.33501816 0.21128294 -0.1871934 0.48865062 0.40081033 -0.3458401 0.27568734 -0.12349567 0.05457949 0.13993365 -0.094154 -0.0801183 0.0050533414 0.19075316 0.13971488 0.3266524 0.35609242 0.5207098 0.44735765 0.6235366 0.67610025 0.63110566 0.53604895 0.56899095 0.5894706 0.60088 0.4407816 0.54102796 0.5283617 0.57748985 0.44447717 0.37375474 0.5335364 0.58053875 0.36946914 0.42159534 0.4207739 0.49644667 0.37669373 0.3389872 0.31713644 0.33174726 0.355312 0.49657854 0.27686667 0.23136622 0.17824012 0.41742355 0.14792462 0.12174931 0.3348748 -0.003501121 -0.083298124 -0.04161136 -0.102897465 0.7044445 0.7252738 0.34010556 0.30217186 0.63854563 0.6763309 0.7291949 0.37630224 0.36173588 0.43004972 0.5986729 0.64700425 0.6846149 0.4104453 0.41999298 0.5954902 0.64190686 0.6816596 0.45514792 0.46386325 0.34630314 0.46189624 0.46517944 0.40715057 0.13526659 0.39325553 0.17306429 0.062545896 0.20599197 0.11264159 -0.26498836 0.35885555 0.3035625 0.24167751 0.12073554 0.078979254 0.42156234 0.5316307 0.45284182 0.37959787 0.33786237 0.55543685 0.5437549 0.5029558 0.5270829 0.55791324 0.5850005 0.6515273 0.63915044 0.6514272 0.6929997 0.74504477 0.7782106 0.8314484 0.86018384 0.82022214 0.86310995 0.88074696 0.6511882 0.70253605 0.64744544 0.64056116 0.60120463 0.5321641 0.50382364 0.53932893 0.5509252 0.5033576 0.6339924 0.3744219 0.35228083 0.45263833 0.46041596 0.45583645 0.64097244 0.62612736 0.6160917 0.2967058 0.31833458 0.31213006 0.36176562 0.6422695 0.63345826 0.62665206 0.23663881 0.33044073 0.2969772 0.6325826 0.62372893 0.08013715 0.008274801 0.033053294 0.009642176 0.047308356 0.67860115 0.7063786 0.7177494 0.21996304 0.21423735 0.118218884 -0.1288184 0.5291748 0.6710228 0.713707 0.7318646 0.7410661 0.29010257 0.2859252 0.5150426 0.7482475 0.7801331 0.31801283 0.09027671 0.48731667 0.7355038 0.7805138 0.36843768 0.37944353 0.5838232 0.6568308 0.7077656 0.7766421 0.4354997 0.44704026 0.03915085 0.5959464 0.6571288 0.7097778 0.42380518 0.43940875 0.38393563 0.37773794 0.20336317 0.09621249 0.2080028 0.18243182 0.15392542 0.0675318 -0.24689981 0.2341071 0.3180403 0.25466955 0.23706906 0.518296 0.5093941 0.4698648 0.48522276 0.4474288 0.43911785 0.5321038 0.6314315 0.71980214 0.84652865 0.80546033 0.8508842 0.89050925 0.8723819 0.8343699 0.89253145 0.9098309 0.88751507 0.633613 0.62383497 0.61452657 0.6426669 0.6680095 0.5840744 0.47733957 0.45372874 0.4068442 0.6217315 0.629877 0.6146329 0.25860962 0.44486505 0.36352372 0.33805978 0.6324177 0.63860744 0.5088345 0.10892406 0.22136906 0.3125105 0.53773427 0.55355436 0.6408269 0.6455798 0.49616954 0.107780136 0.5013206 0.63360983 0.62266123 0.3978418 0.32702917 0.45775917 0.59062165 0.6056804 0.55804646 0.49888426 -0.030682964 0.19215111 0.5466716 0.5164125 0.11708898 0.15127765 0.030200355 0.6446662 0.68711853 0.71069705 0.7255529 0.059337072 0.111232124 0.72915334 0.7362274 0.0791078 0.7978183 0.13498509 0.24675037 0.77801466 0.3321123 0.79602695 0.7619034 0.3325926 0.338237 0.5491698 0.64315754 0.7316061 0.7736664 0.34234136 0.6474276 0.3115198 0.29671538 0.03233865 0.137521 0.108399704 0.0030210018 0.027458511 0.2981227 0.31111035 0.5136032 0.478298 0.5739879 0.6282945 0.71897376 0.73578405 0.7939646 0.84457 0.806044 0.85214335 0.8989476 0.9097785 0.87641716 0.72155523 0.7192011 0.6611638 0.64289105 0.69111544 0.694495 0.6326141 0.52697444 0.45153058 0.19936521 0.34116635 0.51489556 0.48604798 0.37669736 0.58843803 0.07545577 0.32814917 0.2590588 0.25659746 0.60931087 0.6199781 0.19071147 0.21610121 0.5786698 0.58940625 0.61329293 0.60298 0.6109656 0.057539687 0.60765696 0.60453534 0.5912425 0.5593642 0.41391838 -0.051088344 0.50389886 0.4988027 0.14939582 0.29025584 0.2883144 -0.21582845 -0.2075736 0.5250916 0.66757166 0.68471056 0.7089363 0.6814321 0.66196066 0.235001 -0.0016694888 0.69766897 0.6562383 0.61761177 0.5099593 0.69962025 0.57672524 0.5543133 0.40358773 0.7176701 0.7235778 0.52776027 0.47539914 0.38391203 0.73675966 0.7261398 0.11953282 0.6959492 0.7303289 0.010926157 0.5443401 0.63753796 0.64755267 0.207043 0.30738577 0.33818173 0.09138468 0.31928527 0.24648121 -0.0091432445 0.25829393 0.05308429 0.22677377 0.14438133 0.2929901 0.56012547 0.6196883 0.64870244 0.7061121 0.7299429 0.77538496 0.753075 0.7726737 0.8469589 0.8399098 0.8243997 0.7036121 0.745352 0.7818008 0.74143505 0.6201952 0.6624952 0.70152825 0.43202823 0.3768323 0.5856555 -0.0687972 0.48724005 -0.017110888 -0.1696674 -0.23041998 0.17659093 0.11515698 0.21734005 0.53165674 -0.08722234 0.06524834 0.5750956 0.6572801 0.6571032 0.50207555 0.52225125 0.1553179 0.6528676 0.63010633 0.4922412 0.5992999 0.50294995 0.5723925 0.53875303 0.60869336 0.6233035 0.64472413 0.6584915 -0.11413847 0.5731878 0.65624464 0.65440905 0.65564454 0.6165672 0.62450635 0.59275436 0.6677398 0.4654385 0.39232954 0.6693487 0.3361976 0.2861349 0.61828125 0.67465365 0.09221778 0.09157378 0.29257208 0.53598136 0.61944556 0.10804317 0.19151907 0.1972323 0.25333434 0.24492133 0.24791472 0.44756174 0.36625332 0.4388278 0.47934455 0.38906538 0.53100014 0.5115717 0.46837807 0.34638923 0.18422002 0.5129959 0.5435109 0.16848743 0.269096 0.5608151 0.573779 0.70090026 0.70269156 0.6268934 0.6345842 0.76047504 0.70762616 0.74816585 0.78956676 0.71805394 0.5271347 0.41567564 0.6607163 0.3886947 0.32298306 0.54235303 0.24322715 0.41256937 0.4212677 0.28774872 -0.2034031 -0.066128775 -0.035517592 0.0140702315 0.057757422 0.363069 0.16415216 0.13515532 0.63238865 0.7005396 0.6918303 0.42448652 0.32590017 0.095837906 0.42741454 0.56550264 0.69022226 0.65530527 0.6506581 0.6189812 0.37250754 0.3744073 0.57826245 0.44279838 0.18255258 0.6202749 0.58057654 0.43861157 0.48610312 0.6296848 0.5918925 0.6002984 0.5616549 0.49445537 0.59683686 0.45702794 0.48018545 0.5956987 0.33229327 0.49669 0.5321785 0.19430768 0.039542876 0.47150898 0.5165987 0.15419443 0.38007128 0.4223464 0.47223884 0.51524264 0.47419786 0.51389086 0.558453 0.4329657 0.50977886 0.5461173 0.6302848 0.59765714 0.6040639 0.27198184 0.42509484 0.31949466 0.12555134 0.241769 0.36724272 0.36165807 0.43403184 0.24309856 0.70748293 0.67568135 0.61656034 0.44436115 0.36562896 0.61591583 0.63922477 0.33123463 0.26854393 0.48182186 0.53036 0.21640033 0.1546227 0.3342883 0.11927972 0.08594096 0.24121308 0.01380213 0.04488572 0.081944905 0.054036677 0.25605303 0.043330163 0.053921327 0.2889787 0.10848889 0.66240686 0.6976931 0.69888186 0.30001467 -0.053330302 -0.008954495 0.63791573 0.6696985 0.6633377 0.03399837 0.51931554 -0.23213917 -0.2537181 0.38050705 0.34746963 0.45748478 0.21106432 -0.09499002 -0.27183864 -0.34970647 -0.02617539 0.5156383 -0.3072886 -0.42176628 -0.4623847 -0.088543326 0.29836026 0.4123173 0.5437654 0.39710712 0.46751893 0.40658715 0.41546717 0.37719324 0.4178964 0.30946863 0.21663792 0.38228956 0.43984613 0.4624564 0.57282245 -0.004898943 0.07060071 0.2690009 0.48130932 0.45663458 0.6343117 0.5601866 0.5468657 0.61748815 0.6670395 0.4921335 0.52895737 0.5620407 0.6564797 0.6943084 0.6907889 0.64327526 0.007054776 0.18416066 0.035001457 0.3404277 0.418113 0.2956923 0.43504813 0.4379204 0.5752569 0.6061592 0.6024184 0.65434813 0.73730576 0.69036615 0.5259678 0.4245747 0.54832816 0.56905365 0.5028421 0.35991523 0.31064942 0.26378906 0.22190584 0.45534527 0.21259429 0.18047252 0.32888216 0.14252044 0.12416344 0.19299258 0.19113722 0.100394994 0.10016975 0.06661916 0.23407122 0.2127823 0.091936186 0.04496777 0.24560252 0.21460487 0.23836353 0.6195757 0.20117673 -0.21513362 -0.08450052 -0.027288254 -0.16210762 -0.2651715 -0.5931319 -0.050096095 0.25589567 -0.29780114 0.3418792 0.3811965 0.38115695 0.10863978 0.30982536 0.38223198 0.19334564 0.27346236 0.35050026 0.5338814 0.35814586 0.62926054 0.6018719 0.13252234 0.67074555 0.68609154 0.6818112 0.26029196 0.7333478 0.73523444 0.67795944 0.5415314 0.3916039 0.6627735 0.12953968 -0.10457825 -0.19364136 -0.6673557 0.47179097 0.68477505 0.6559574 0.17572546 -0.15831532 0.50726944 0.4947402 0.5268396 0.681743 0.6513158 0.42800564 -0.05182162 0.09267825 0.39109206 0.40575787 0.56226474 0.63839865 0.7068976 0.74604803 0.71108687 0.69360584 0.27631173 0.21202694 0.40352023 0.37423298 0.2670928 0.19340326 0.18060783 0.16311236 0.16799323 0.16680445 0.16495189 0.1384044 0.1322363 0.08772862 0.1087984 0.07331582 0.24200633 0.20651677 0.26256773 0.09211396 -0.009298645 0.52836215 0.40172893 -0.099482864 -0.20294409 0.55257857 0.18402418 0.4685734 0.4514424 -0.11810727 0.087746866 0.15090038 0.19480346 0.18612526 0.15072682 0.36153197 -0.045357823 0.22753228 0.4879088 0.03545837 0.54829574 0.63440496 0.20228554 0.6948587 0.45862287 -0.023439202 0.23687597 0.22633533 0.737805 0.72394836 0.6584424 -0.48228177 -0.35761645 0.2670895 0.70259804 0.6104462 0.62559235 0.37956154 0.08228251 -0.26233327 -0.14328337 0.36938715 0.42664492 0.59375536 0.50247544 0.32659817 0.3364626 0.40471768 0.0954148 0.37376088 0.3577286 0.44308287 0.398198 0.50875986 0.5936427 0.4780752 0.5819466 0.70490384 0.67871976 0.71062195 0.73140126 0.71270907 0.7038009 0.15405002 0.07713847 0.15423633 -0.06526488 -0.010068417 0.15258698 0.14700723 0.12650429 -0.062401887 0.15993908 0.26667872 0.12813431 0.2663385 0.05326117 0.19134882 0.07521734 0.48276567 0.42493507 -0.15506242 0.5456337 0.4213235 0.5856769 -0.15239188 -0.06644372 0.22480288 0.23556569 0.500874 -0.15898493 0.20469819 0.18441468 0.06945867 0.40124318 0.46311355 -0.13726479 0.51339376 0.58962715 0.19357622 0.66253716 0.6899631 0.6905346 0.6682272 0.5954324 0.5065834 -0.1914204 -0.26902077 -0.27215827 -0.35918403 0.23664993 0.16702947 -0.16533166 0.04020437 0.13569567 0.23379907 -0.08707567 -0.35169485 0.61005956 0.64618546 0.6996856 0.01957336 0.11713094 0.13800709 0.008299276 0.019816488 0.06136231 0.052035972 0.34291723 0.29400045 0.18094876 0.13172825 -0.06771251 0.08350663 0.22306155 0.11199963 0.19464245 0.1877592 -0.033392116 0.4239486 0.3090607 0.58660805 0.5216518 -0.5459942 -0.38653517 -0.18297166 0.5745993 -0.23595327 0.26374167 0.45764902 0.16750899 0.22958027 0.07616542 0.29859385 0.02633182 0.095072396 0.3736215 0.18632841 0.42174911 0.36440605 0.47655454 0.5633163 0.07722323 0.6326692 0.54453224 0.3329296 0.13893825 -0.18219846 -0.16857949 -0.16351661 -0.14012033 0.09785833 0.10238614 -0.13715668 0.022401951 0.056853823 -0.049253576 0.042421542 -0.029300325 -0.049108088 0.5129868 0.04138182 0.03749323 0.30657262 0.20435219 0.14807156 0.0488557 -0.04575725 -0.18177596 -0.103867374 0.3330282 0.3335031 0.28255102 0.16861333 -0.25083306 -0.1899453 0.069941685 0.18706484 0.27962995 0.26395577 0.10878825 0.24576639 0.30359817 0.30920386 0.2914024 0.31637663 0.007116489 -0.13286184 0.1305684 0.24204452 0.29481536 0.16820727 -0.22882655 0.0007796176 0.06877621 0.19507548 -0.113756984 0.17213148 0.3163479 0.051840283 0.14585015 0.25317568 0.2889279 0.28100285 0.34756225 0.311723 0.44250077 0.38816077 0.4543804 0.5567131 0.47487083 0.551116 0.5034223 0.44626552 0.38884866 0.22599512 0.116573066 0.108946234 -0.058809992 -0.13587259 -0.14866099 0.067421295 0.08199825 -0.044025697 0.109702304 0.026964389 0.13812697 0.11312064 -0.036912408 0.109289005 0.009453639 0.1978824 0.13111076 0.38440627 0.25610006 0.38371912 0.4104327 0.4183519 0.21333762 0.17133643 0.06398107 0.042311504 -0.0026507378 0.21882725 0.29561338 0.30759636 0.29594046 0.27222246 0.23914754 0.20292428 0.06640771 -0.09153455 -0.18753839 -0.22757813 -0.17316338 0.13372704 0.26517528 0.281014 0.27181596 0.2958876 0.29155308 -0.29095665 0.2496407 0.25915545 0.24888247 0.6435355 0.70258796 0.7619564 0.27090776 0.29286772 0.6915965 0.7918782 0.8548498 0.29929182 0.26897728 0.16844025 0.25278288 0.5138406 0.6924371 0.8017497 0.85002136 0.31853634 0.21265669 0.16126986 0.69795203 0.7495231 0.3784083 0.18352276 0.06476134 0.44632328 -0.13722822 0.3955689 0.1326039 0.13117218 0.18482266 0.2674502 0.29082614 0.25022167 0.32919523 0.30875638 0.3410797 0.4460256 0.3824804 0.5530866 0.549518 0.40925258 0.3787256 0.5802219 0.59723294 0.4010526 0.3630452 0.22770825 0.14395422 0.07109102 -0.0012640785 0.09353093 0.31994677 0.17304209 0.1979563 0.0787261 0.21012488 0.2212216 0.049245425 0.098633125 0.23730096 0.34490144 0.5414405 0.6603905 0.38807708 0.46893695 0.71146154 0.7797182 0.5835526 0.72139525 0.8490007 0.8750034 0.20868005 0.13697316 0.09050983 0.0181553 -0.087188415 -0.048803158 0.025360502 0.17524129 0.25629622 0.30306923 0.3059694 0.25351125 0.19838417 0.21103533 0.22635463 0.20201753 -0.091394275 -0.11643108 0.2737877 0.22911862 0.18090162 0.17565024 0.22821772 0.17631325 0.5916007 0.65653 0.7422669 0.83461404 0.1787854 0.13217285 0.896335 0.9320483 0.3194187 0.27635315 0.20984283 0.8906895 0.37184095 0.2004706 0.69899946 0.7571331 0.43466976 0.39334455 0.4885285 0.6232202 0.43829507 0.11546615 0.4068764 -0.09139945 -0.0377549 0.25402787 0.22292176 0.09268168 0.26625443 0.30246425 0.055929534 0.30092487 0.3096501 0.33137962 0.34876037 0.51072776 0.38499722 0.37652084 0.5852345 0.57117426 0.38490608 0.5999675 0.16026379 0.11387269 0.0130577665 0.3325159 0.60064673 0.19381528 0.22608876 0.19816925 0.08606458 0.050697014 0.064974576 0.18942012 0.601479 0.35206938 0.7542753 0.38797733 0.49416643 0.8678323 0.63476676 0.7304407 0.9245035 0.91980815 0.788023 0.87816644 0.9176809 0.18642768 0.23304464 0.27674985 0.014591999 0.08007941 0.052718334 0.013177583 0.018069524 0.0949595 0.2927126 0.26028234 0.21148387 0.19079593 0.11904848 0.17807013 0.19848529 0.12682356 0.20130852 0.18105437 0.071415834 0.12212545 0.1721507 0.5839252 0.68386126 0.78056276 0.22953786 0.13833286 0.8721949 0.36896312 0.33362958 0.87228274 0.4194702 0.79256797 0.41578677 0.43263334 0.39926636 0.670117 0.37228885 0.16375318 0.29705304 -0.12741007 -0.014172062 0.25912404 0.21768443 0.28319734 0.2101692 0.33695328 0.2972919 0.26830378 0.35724035 0.31600672 0.48317385 0.33293864 0.54967934 0.032970235 0.5367213 0.57042944 -0.040434457 -0.012693964 0.120920494 0.19175434 0.40971708 -0.06260413 0.19037026 0.13239056 0.19418375 0.12922657 0.032734163 0.16275156 0.07701251 0.18224467 0.25708455 0.67055494 0.36915398 0.7607875 0.47329682 0.5349897 0.8899766 0.6517299 0.7700994 0.92954826 0.92681617 0.82291716 0.8853664 0.9195186 0.12032742 0.043671153 0.08629127 0.12260334 0.16612847 0.18035749 0.17290914 -0.025704097 0.012795977 0.14884609 0.17755993 0.13836597 0.13726526 0.15034842 0.08376003 -0.11835195 0.15220623 0.19845912 0.15520212 0.020388674 0.025372505 0.039063856 0.24554737 0.54425246 0.5367917 0.6537883 0.26240426 0.22759213 0.1497658 0.5787335 0.71943164 0.3560664 0.30044132 0.74090624 0.38158727 0.38739982 0.7235285 0.3808327 0.48035586 0.3124132 0.32803428 0.07201874 0.25131425 0.22896783 0.33209407 0.23543173 0.39708072 0.39375827 0.4170906 0.402354 0.33802372 0.31257933 0.24502045 0.33061433 -0.18678558 0.3045608 -0.037542164 0.03373318 0.033574745 0.40704858 0.14950559 0.05269517 0.049596094 0.3485262 0.2978385 0.14457533 -0.1070767 0.19088286 0.48991376 0.43823665 0.30814788 0.15528151 0.043763645 -0.011723865 0.09836451 0.24123111 0.09657891 0.06683817 0.051185578 -0.028881714 0.579466 0.35198975 0.49057645 0.6200806 0.6374574 0.4727999 0.52391815 0.68745375 0.7362969 0.5751981 0.8668672 0.8379512 0.72685575 0.82570636 0.8965715 0.90916437 0.8968353 0.8535668 0.8947419 0.9131855 0.2329729 0.21603797 0.20212346 0.16416483 0.12085461 0.111105114 0.16724983 0.049006447 0.092705354 0.04322126 0.047181096 0.00039730384 0.014620753 0.1318506 0.12900093 -0.05398213 -0.41556394 0.1029877 0.21410924 0.16949412 0.039518684 -0.048003763 0.18746293 0.40493423 0.48974055 0.270527 0.24971014 0.23056701 0.46804965 0.29416466 0.44189262 0.56634015 0.3072723 0.37290406 0.5087883 0.32719526 0.33926827 0.22658837 0.25225103 0.20647073 0.13058923 0.2254688 0.025604296 0.3433925 0.37918118 0.3941418 0.3610028 0.45437032 0.39685684 0.3165571 0.3287943 0.3531779 0.33267307 0.16081241 0.08961298 0.25298405 0.26933405 -0.08577329 0.31420702 0.061778303 0.4400582 -0.0023434572 0.17578784 0.57199925 0.48719263 0.21214393 0.04423435 0.25561053 0.25421917 0.57033503 0.5107422 0.47178763 0.3789637 0.28263006 0.09685469 0.11721549 0.11539374 -0.07195653 0.23669642 0.61158586 0.60538965 0.5442812 0.67009634 0.67507684 0.6483895 0.6271539 0.7163813 0.7897773 0.7129723 0.7481128 0.6004975 0.7888485 0.83798575 0.82957876 0.8320228 0.8488556 0.884457 0.885406 0.18771918 0.2139924 0.24044093 0.25569406 0.20256515 0.13625258 0.117047876 0.19756533 0.20384637 0.20834842 0.117316656 0.10996471 0.15815884 0.17475408 0.045689434 -0.13446592 -0.097444676 -0.06137056 0.12536913 0.00957364 -0.0027888138 -0.18088388 -0.028847078 0.103394896 0.10038318 0.20669043 0.16483715 0.07539072 -0.4199854 0.29618984 0.35227692 0.22251958 0.33462647 0.36442155 0.2151055 0.30287668 0.35628703 0.2153289 0.19653259 0.3113141 0.1838277 0.28857628 -0.07563683 0.07860258 -0.022414446 0.24916449 0.21698996 0.38230076 0.39894438 0.21964552 0.3972441 0.3921451 0.4905495 0.40961993 0.070494555 0.22027963 0.34644255 0.4120097 0.33650896 -0.15915383 0.24607342 0.27887943 0.120765746 0.29179078 0.1319968 0.14540589 0.6252153 0.45819306 0.06483434 -0.085613735 -0.13373026 0.18864082 0.70360804 0.61391973 0.10201796 0.11822586 0.26799035 0.16988686 0.22376212 0.66858745 0.62152123 0.5571689 0.50449073 0.3920442 0.31368744 0.1436137 0.18089978 0.2062294 0.30951452 0.17947519 0.65267485 0.6165976 0.8978178 0.9185524 0.7