# vtk DataFile Version 2.0
Really cool data
ASCII
DATASET POLYDATA
POINTS 4312 float
-4.574424 49.173687 40.319584
-4.5924983 50.51075 38.83998
-4.7496505 50.819633 39.571907
-4.664299 50.559353 40.056038
-4.606374 51.368538 38.960327
-4.7100277 51.278088 39.486954
-4.6321096 51.191467 39.990814
-3.8341248 45.14785 31.6685
-3.8011804 44.65717 33.479706
-3.6887565 44.740513 34.268963
-3.7697713 45.53255 31.276682
-4.2128754 45.751125 31.764349
-4.2332153 45.638184 32.49611
-4.15112 45.614124 33.42106
-3.9164016 45.58845 34.329773
-3.717983 45.917793 34.91079
-3.8729687 46.536457 31.14446
-4.2201486 46.450497 31.643824
-4.352989 46.494568 32.425106
-4.178966 46.403866 33.45785
-3.8552947 46.337914 34.34526
-3.650666 46.25708 34.82765
-3.7178786 47.260815 40.6476
-3.6319492 47.07776 41.612137
-3.7165456 47.177166 31.2891
-3.9529061 47.19897 31.662535
-4.0670667 47.37292 32.284748
-3.9938095 47.122383 33.3123
-3.7145948 47.51612 40.00764
-4.031698 47.76844 40.64906
-3.806894 47.479305 41.36995
-3.5894074 47.428577 41.928722
-3.7595243 47.911205 32.565544
-4.3775964 48.711334 39.734024
-4.4475107 48.61243 40.278004
-4.0658994 48.247013 41.27996
-4.182817 49.76713 38.950882
-4.5135813 49.186306 39.64188
-4.2817307 49.38046 41.162727
-3.7802906 49.064846 41.820137
-3.8803833 50.36651 38.30546
-4.460121 50.83024 38.621727
-4.05601 50.409164 41.192635
-4.443975 51.360813 38.691322
-4.5208426 51.677197 39.73919
-4.2657733 51.4195 40.462753
-3.8534713 51.64521 40.85676
-4.172565 51.979904 38.810127
-4.206488 52.117455 39.577904
-3.9685035 52.123344 40.209724
-3.7708168 52.663197 39.428467
-2.7942533 39.853065 26.744972
-2.9055398 39.804783 27.362051
-2.7908673 39.97733 28.079353
-2.8193893 40.709274 26.118494
-3.070734 40.583748 26.705711
-3.1645434 40.56794 27.453703
-2.9717402 40.3983 28.046574
-2.7720165 41.4485 25.935055
-3.099751 41.446735 26.492168
-3.2517674 41.43381 27.459139
-3.0950012 41.526966 28.099718
-3.0654688 42.31647 26.56907
-3.2127419 42.300304 27.231031
-2.964141 42.40354 28.131487
-3.0244036 42.899593 26.853003
-2.981832 42.968636 27.351221
-2.8925245 42.869637 27.8313
-2.9372542 44.078194 31.688683
-2.8952038 43.5908 32.86481
-2.915018 43.66355 33.17954
-3.0438135 44.16062 34.22251
-3.2662873 44.55332 31.628067
-3.4026158 44.417404 34.0824
-3.035253 44.407204 34.88488
-2.6512663 45.085667 36.59882
-3.1504002 45.656017 30.887793
-3.3296802 45.477135 35.37443
-2.7766385 45.80869 36.8012
-2.8335466 46.37472 41.697628
-3.3651617 46.57459 30.853651
-3.4769888 46.592754 34.81793
-3.0169182 46.0655 36.31345
-3.219954 46.66794 40.669838
-3.3025994 46.724655 41.496307
-3.1248212 46.789284 41.98809
-3.4013896 47.199135 31.135225
-3.6144352 47.658237 31.704706
-3.0473962 47.001717 35.050858
-3.527874 47.50184 39.75462
-3.4667919 47.589893 42.16223
-2.8902857 47.786385 42.70616
-3.4624207 47.855576 31.846577
-3.479019 48.159878 32.650368
-3.379335 48.009335 33.32198
-3.0606794 48.4582 38.803417
-3.2965517 48.565327 42.412228
-3.3514917 49.26087 42.169147
-3.5719302 50.328613 38.13093
-3.0615726 50.324062 42.041695
-3.4050164 51.07887 41.56799
-2.8201113 51.33416 41.730457
-3.5307765 52.454594 38.74834
-3.4132895 52.46647 40.371662
-3.3110576 52.015182 40.933674
-3.2029653 52.69906 38.823307
-3.4046602 52.734463 39.498985
-3.2338982 52.68589 40.09989
-1.9567518 39.044903 26.563396
-2.252733 39.12635 27.518654
-1.8913212 39.27418 28.345512
-2.1928878 39.870945 25.906622
-2.4845295 39.536907 26.623526
-2.590515 39.404747 27.502672
-2.4108517 39.692833 28.293766
-1.9229655 39.766186 28.752104
-2.0243742 40.78092 25.26914
-2.3690097 40.51787 25.636759
-2.4721498 40.40373 28.572392
-2.2694085 40.587357 28.74691
-1.7382721 41.32035 24.892273
-2.3707197 41.344395 25.551943
-2.5607522 41.71143 28.738602
-1.7368897 42.395428 25.077866
-2.4330254 42.367676 25.680124
-2.316483 42.16676 28.715773
-2.55618 43.334805 32.582684
-2.2545028 43.229427 32.983494
-2.2665246 43.240604 25.891558
-2.5649073 43.30986 26.621655
-2.36337 43.15692 28.268543
-2.6314404 43.444134 33.225708
-1.8112341 43.489304 34.276558
-1.6056765 44.80538 24.984455
-1.7988032 44.253956 25.75216
-1.9553912 44.000683 26.204185
-2.3280675 44.61624 36.235096
-2.1303322 45.026005 37.479008
-1.5601907 45.43054 24.943039
-1.6834047 45.00091 25.471302
-2.1258483 45.56582 30.767242
-1.9118901 45.88395 38.5223
-2.6237578 46.173954 40.97849
-2.50297 46.041763 41.499294
-2.2425961 46.203243 42.177708
-2.4719896 46.459423 30.674206
-2.183615 46.438923 42.299652
-1.9005318 47.002323 42.7683
-2.5944107 47.27688 30.932747
-2.4064565 47.202484 42.730774
-2.683991 47.704075 31.21924
-2.5867586 48.183018 31.832169
-2.5445473 48.286293 32.20412
-2.1964965 48.387646 34.179832
-1.708887 49.61076 35.80163
-1.8496863 49.72832 36.60331
-2.167408 49.082935 43.0637
-2.392985 50.566162 37.507904
-2.0839994 50.727257 42.372936
-2.0744507 50.99562 37.0255
-2.1355274 51.581528 41.91184
-1.708391 51.96095 36.729412
-2.8848717 52.484493 38.59655
-2.709629 52.77289 38.934006
-2.5477338 52.84945 39.513412
-2.7922573 52.80346 40.12279
-1.0079486 37.944458 26.844587
-1.0370582 37.830406 27.318079
-0.8461211 37.817177 27.88791
-1.5172926 38.606667 26.765463
-1.5901296 38.813644 27.811647
-1.4626253 38.82406 28.347275
-1.3501346 39.689163 25.567818
-1.7190106 39.53913 28.570234
-1.4398069 39.82488 29.016813
-1.1319071 40.69737 24.863306
-1.3533611 40.4468 29.397364
-1.3395584 41.447216 24.702143
-0.7591567 41.794308 36.47206
-1.2645692 42.420998 24.594181
-0.7238606 42.60691 30.69203
-1.5690745 43.156948 33.357483
-0.9959667 42.655922 35.40417
-0.77816993 42.389534 37.095398
-0.7621736 43.12292 38.28954
-1.2907646 43.635017 24.47779
-1.4574655 43.403088 28.423672
-1.4245784 43.32267 28.849087
-1.6273745 43.461517 31.567062
-1.468983 43.455338 36.451027
-1.3871195 43.56623 37.19192
-1.113152 43.743637 38.21742
-0.8248979 43.8906 39.44867
-0.76271147 44.27755 40.870537
-0.7926543 44.589237 23.232899
-1.0784522 44.385406 23.878971
-1.4628794 44.779076 24.630346
-1.2700521 44.38574 30.362963
-1.1814579 44.657166 40.639668
-1.1683416 44.791267 41.56239
-1.0817959 45.079426 42.21407
-0.64896417 45.04141 22.953629
-1.005669 45.39288 23.738539
-1.4075722 45.34274 24.505325
-1.4917641 45.521675 25.672638
-1.2516692 45.776062 26.030012
-1.841839 45.590446 30.903196
-0.8707891 45.933453 23.879614
-1.0583656 46.281544 24.636137
-1.1647073 46.341118 25.41832
-0.8401288 46.385506 26.32576
-0.7395705 46.737915 24.861359
-0.8348129 46.771942 25.245249
-0.75210965 46.726906 25.943987
-1.0093428 47.378563 44.786724
-0.78085434 47.767284 45.709774
-1.2352295 47.934643 31.447838
-0.94040394 48.32701 45.74777
-0.75464857 48.406307 46.135868
-1.5269386 48.57416 32.722954
-0.9784472 49.187397 33.483204
-1.0561546 49.34978 44.858643
-0.81632006 49.429043 45.52052
-0.7648436 49.120377 45.85419
-0.8645654 49.893135 43.93564
-1.3126597 51.104275 34.871387
-1.523581 51.129734 35.526367
-1.0800598 51.993732 35.146496
-1.1083304 52.309074 35.61219
-1.3495387 52.30495 36.476727
-1.4747682 52.442173 39.81155
-1.5380331 52.32624 41.34787
-1.1902567 51.982346 41.879063
-0.82149315 52.725822 36.216496
-1.9216237 52.709984 39.529263
-1.9278933 52.7666 40.25231
-0.15117165 37.273136 26.72555
-0.11065653 37.25735 27.503168
-0.031648308 37.279964 27.996128
-0.023769826 37.641617 26.105968
-0.56019485 37.816032 26.504457
-0.53260887 37.468723 27.320559
-0.2043179 37.730934 28.3382
-0.38795865 38.570774 25.834091
-0.45960867 39.01308 29.043335
-0.17443319 39.694485 24.954771
0.09223795 40.21006 36.66938
-0.10594776 40.667698 24.45469
-0.21755072 41.18765 35.20872
-0.07397947 40.62098 35.916
-0.19517589 40.64721 36.259235
0.17129648 40.40434 37.330772
0.20817077 40.927193 37.78322
-0.38148338 41.836456 23.951807
-0.3264511 41.780018 34.75031
-0.35337684 41.680267 37.40912
0.4409267 42.796677 22.069239
-0.5738113 42.668964 23.712759
-0.05912906 42.345455 33.732197
-0.5246171 42.628918 34.58371
-0.056722492 43.30677 39.798553
0.33749115 43.70741 21.947187
-0.19558057 43.280796 22.911049
-0.5083939 43.126972 23.859148
-0.52067125 44.34205 41.571796
0.06904432 44.46432 22.174955
-0.36645675 44.54593 22.623512
0.36428982 44.84578 43.221577
-0.018933147 45.330578 22.328737
-0.26834095 45.421494 22.727009
0.055559784 45.373905 43.55564
0.4332227 45.61406 45.416515
-0.04408884 45.88332 22.786434
-0.22764274 46.384857 23.598856
-0.30983567 46.154926 26.830112
0.19768995 46.45693 29.133028
-0.6402509 46.516228 30.640871
-0.5819112 46.902756 44.304077
-0.12376806 46.608257 45.20234
-0.0026828349 46.680336 45.863205
-0.4926801 46.697514 24.197147
-0.33582634 47.005146 24.826393
-0.34754598 47.094086 25.35056
0.10403404 47.52858 30.516092
-0.06716415 47.61363 46.534355
0.17745529 47.562016 46.79107
0.08775295 48.096416 31.173273
-0.6034462 48.28876 46.32976
-0.019027576 48.750587 32.069878
-0.094020516 48.99899 32.36328
-0.6127976 49.64351 45.73673
-0.3443604 49.384113 46.272644
0.14923593 49.443394 46.838985
-0.538108 49.664368 33.232056
0.052068483 50.588562 33.807
-0.6110354 50.254734 44.49767
-0.47902665 49.896873 45.637398
-0.08364414 51.746372 34.367535
-0.028324708 51.148727 43.377613
-0.01817739 50.924423 44.032047
-0.43385515 52.414864 34.943283
-0.54561436 52.578358 35.35938
-0.057897314 52.702892 35.160732
-0.32332236 52.8082 35.671917
-0.3635898 52.93664 36.236023
-0.21870936 52.848854 37.138664
-0.7879437 52.56618 40.590008
1.3763082 33.09547 28.236406
1.3305476 33.019135 28.659407
1.2914159 33.09855 29.085648
1.3200519 33.49521 28.135176
1.1614064 33.528988 28.603584
1.2170148 33.49679 29.157223
1.3356618 33.998604 27.924465
1.158349 34.21426 28.590004
1.2559519 34.38852 29.145897
1.362093 35.938274 28.13115
1.2647327 37.289574 24.947994
0.7065054 37.04126 25.970207
0.34377456 37.31819 26.330177
0.86541116 36.598022 27.483189
0.33519065 37.266434 28.027441
1.3107404 37.520542 24.377134
0.6231124 37.48594 25.579727
1.0255561 38.716045 24.1175
0.9166254 38.652874 24.520777
0.1695666 38.348747 29.024113
0.960376 39.350136 35.956486
[...]
POINT_DATA 4312
SCALARS features_00 float 1
LOOKUP_TABLE default
0.5696302 0.64182615 0.6740072 0.64735687 0.71570987 0.7100031 0.6874113 0.6974579 0.49517867 0.43487114 0.7036476 0.7357906 0.7199985 0.5802355 0.4632365 0.39592078 0.6880913 0.7153093 0.7265533 0.59059155 0.45945096 0.4054662 0.45266312 0.4446872 0.6491125 0.6627043 0.6697264 0.64029825 0.46256828 0.48512748 0.4699125 0.45775282 0.630582 0.5293597 0.53470993 0.51352406 0.57768995 0.5715005 0.5560914 0.50774056 0.5284507 0.6523154 0.54780215 0.7076852 0.7229179 0.6698912 0.63575006 0.73312247 0.73367107 0.71121186 0.7085028 0.62809587 0.62088454 0.5743383 0.56954 0.6566348 0.67882407 0.6153516 0.5020336 0.6086345 0.6962498 0.67743814 0.5439205 0.6235732 0.6395477 0.51607215 0.5615161 0.60510546 0.48366725 0.37970757 0.35712454 0.33834803 0.60419977 0.39414006 0.3311993 0.18192552 0.64950013 0.33811408 0.18683529 0.37840778 0.65455496 0.39206544 0.24929458 0.39631504 0.41905153 0.41119683 0.6277201 0.62185514 0.3508039 0.44853282 0.45778668 0.4344653 0.60256505 0.59173334 0.58730775 0.46706098 0.4654318 0.45270693 0.46272394 0.40568826 0.48735583 0.45604643 0.6830548 0.6749814 0.61246276 0.6469321 0.6815291 0.66470075 0.51620954 0.54052365 0.48259604 0.50747466 0.59021056 0.57168436 0.5240144 0.46402895 0.37035704 0.46880507 0.54011714 0.5217445 0.28470948 0.4224826 0.6233077 0.26796302 0.39266816 0.59693104 0.3326617 0.27017063 0.32392073 0.4166867 0.57215345 0.31534964 0.14236033 0.3455966 0.26609373 0.25233418 0.16325606 0.0963667 0.43014053 0.35453665 0.50142086 0.030503355 0.32755563 0.32328898 0.31812185 0.57598466 0.32703945 0.30599755 0.5478704 0.37824017 0.5277692 0.47628033 0.45756876 0.36550385 0.13219123 0.10455114 0.2845155 0.15778494 0.30043557 0.21229367 0.42825627 0.46453667 0.57919407 0.5897484 0.599592 0.6188674 0.38817984 0.40615213 0.41103077 0.46470314 0.4932774 0.46465322 0.33404338 0.45896453 0.39794978 0.20586652 0.36241943 0.21504101 0.2559108 0.18318704 0.019115463 0.13545707 0.09415026 0.1576561 0.050787844 0.23164952 0.47713077 0.44022095 0.31061113 0.1168108 0.094931595 0.05929851 0.05470287 0.077693634 0.33668417 0.33005333 0.3582574 0.27168766 0.08286467 0.09558989 0.09510303 0.37047967 0.4386673 0.43160504 0.43898976 0.48105124 0.45053908 0.4851113 0.5144535 0.52183354 0.50177455 0.5271586 0.52691627 0.50590324 0.2293712 0.35171747 0.15361664 0.38681006 0.40060633 0.19094525 0.11089098 0.3322816 0.3752427 0.39462325 0.22748417 0.45448142 0.39482087 0.5134483 0.51783323 0.5120054 0.40723652 0.4862463 0.3597048 0.540678 0.49928474 0.5149877 0.2954988 0.30920315 0.30414218 0.26232007 0.32697347 0.3474067 0.3703276 0.24212913 0.36060286 0.05986295 0.4237587 0.04235267 0.27913684 0.37134027 0.3779567 0.42205456 0.3774678 0.07704205 0.15434748 0.26903242 0.18616605 0.104000956 -0.08736501 0.0009105876 0.041548494 0.2567836 0.16732162 0.14487551 0.091838874 0.29457092 0.30380604 0.06496526 0.35050774 0.38599038 0.00438796 0.049349252 0.41574448 0.48193836 0.39148164 -0.10292718 0.1245524 0.08444724 0.15245642 0.2288838 0.5113101 0.50331753 0.48583025 0.0031695887 0.35985136 0.3475538 0.03216752 0.40129954 0.041829873 0.049697332 0.37613496 0.41100255 0.45234323 0.07359301 0.22407207 0.28743446 0.35849524 0.48012263 0.13744132 0.21735081 0.5281193 0.5377157 0.54010826 0.54494727 0.5440747 0.48313522 0.3152244 0.8057093 0.81958854 0.81372154 0.78208923 0.7942685 0.7961477 0.7092147 0.7137624 0.6843251 0.27712864 0.23653416 0.18728264 0.24327198 0.17654327 0.25671452 0.27621472 0.2087546 0.16834007 0.16647187 0.32074675 0.45537308 0.50403076 0.5373858 -0.026664272 0.06361044 0.1878913 0.3884048 0.40693408 0.46131694 0.47476238 0.49913102 -0.049651586 0.0038741492 -0.013378441 -0.049858764 0.30970764 0.39608315 0.20294508 0.15751089 0.017988458 0.23944041 0.21178955 0.082678586 0.07253204 0.17399088 0.2900857 0.2947476 0.16194192 0.13715643 0.09998729 0.29403263 0.3691659 0.42178518 0.44772983 0.31490588 0.30639493 0.39258075 0.43489647 0.31221923 0.030238163 0.37214208 0.4229045 0.40463215 0.046157885 -0.14518979 0.3590474 0.4281914 0.41181225 0.3816681 0.26032203 0.032592658 -0.040298227 0.33026904 0.2592433 0.032545123 0.034315914 0.37890965 0.05070222 0.46234322 0.46476883 0.041282386 0.38512883 0.4741088 0.1335091 0.23754057 0.5216919 0.12491304 0.08749291 0.5385597 0.54019326 0.51688963 0.4096191 0.8128541 0.8165122 0.7902453 0.8227613 0.8116263 0.78073174 0.75759125 0.8010657 0.7728163 0.58896303 0.64860666 0.160645 0.2408635 0.40843758 0.40312454 0.33261228 0.30115336 0.20006701 0.20542398 0.21237023 0.19517346 0.33062714 0.309555 0.07262532 0.6304988 0.6640357 0.6699792 0.2936061 0.25660834 0.52269983 0.5719371 0.60092264 0.60689425 0.13393909 0.08780875 0.38428026 0.54230547 0.16973771 0.11288479 -0.043160763 -0.022598416 -0.019140914 0.421876 0.1850841 0.2238038 0.32244408 0.50660926 0.57014394 0.2344142 0.22997898 0.2300037 0.23168391 0.20662203 0.24303499 0.37371272 0.45277047 0.49619353 0.5392083 0.20643608 0.4705248 0.48562458 0.29354692 0.46118927 0.25641057 0.40865272 0.21154779 0.33336872 0.32821497 0.29195988 0.35803503 0.2809742 0.24226591 0.17036493 0.08401069 -0.042168 0.27795658 0.028548546 0.04609302 0.06303006 0.43376368 0.3910249 0.10479706 0.084663026 0.023769232 0.47998446 0.29751208 0.41335744 0.46331877 0.48298788 0.44111884 0.50087893 0.11962188 0.058310762 0.52368444 0.4421092 0.34259242 0.2295939 0.6605067 0.73989403 0.7336024 0.75076365 0.7878994 0.79391605 0.761406 0.772244 0.7693379 0.73065054 0.7942844 0.79603034 0.73732793 0.79017067 0.76816714 0.7160964 0.60507715 0.7006467 0.66804385 0.4686427 0.46992916 0.16671842 0.3900318 0.34468463 0.25515565 0.2831488 0.7089682 0.7225648 0.7280204 0.3492448 0.11500959 0.6454986 0.68295723 0.7072046 0.7141973 -0.003404215 0.25872236 0.27778512 0.5568603 0.6884433 0.7000612 0.16538976 0.1472168 0.10241029 0.5556953 0.16137594 0.14986745 0.16658802 -0.06887143 -0.042481694 0.42697108 0.18996385 0.16539733 0.16653755 0.32112044 0.50120854 0.61840045 0.644953 0.65232325 0.6819948 0.23098549 0.2257815 0.18267666 0.18990545 0.60948527 0.61471367 0.28236327 0.28649965 0.26159877 0.22391264 0.23070614 0.532598 0.19909051 0.13992275 0.47888294 0.047937144 0.4037815 0.09524941 0.32741252 0.21822466 0.083803944 0.042539757 -0.21400115 0.2885871 0.3583186 0.38760483 0.28083843 0.12762958 0.0627954 0.3026444 0.16197686 0.096892916 0.36708468 0.4318726 0.20988718 0.31762946 0.17815746 0.1778238 0.13563551 0.19014177 0.2608611 0.554005 0.5720242 0.6261615 0.8522233 0.83201194 0.6479354 0.6981764 0.7217635 0.68302375 0.80064505 0.791415 0.74679583 0.7674197 0.6795852 0.73106813 0.74331284 0.70592034 0.6472721 0.6295208 0.68260634 0.646881 0.61555314 0.5121151 0.6787381 0.57315826 0.6656103 0.6546947 0.67085326 0.59941745 0.41060638 0.6022931 0.38382518 0.15457468 0.105387025 0.28376558 0.16742216 0.72282255 0.7348806 0.73439205 0.016847674 0.19171105 0.31386524 0.101612076 0.08307991 0.71495444 0.7139894 0.7291474 0.0833228 0.06588112 0.04710245 -0.24234876 0.6582502 0.6942084 0.14510408 0.14721625 0.10540131 0.077315256 0.484066 0.14645134 0.16412106 0.16942494 -0.16607174 -0.13482441 0.36887902 0.64399767 0.69381243 0.1792765 0.1830302 0.33074024 0.42681015 0.6474432 0.6879821 0.71084243 0.71296495 0.2710743 0.2613638 0.24318284 0.18674362 0.18036258 0.6818535 0.3579901 0.30137452 0.44273365 0.4379888 0.38584995 0.3306571 0.28014454 0.24056074 0.46904033 0.48276955 0.48721704 0.467287 0.4383095 -0.09047037 0.5139612 -0.054876667 0.0074291416 0.2475735 0.36002433 0.29700914 0.3664007 0.094603226 0.3979076 0.28080833 0.32103908 0.03759283 0.3137101 0.24564141 0.13351302 0.12091583 0.31743038 0.11566283 0.16059984 0.045777485 0.06433486 0.017623218 -0.008818958 0.23131791 0.32757175 0.40546346 0.3705898 0.49535567 0.48140037 0.5022375 0.44990787 0.41969708 0.8412684 0.86908436 0.8542087 0.80997694 0.5338465 0.46777976 0.450579 0.7949883 0.8520652 0.8659982 0.83477885 0.798257 0.76328844 0.44282344 0.83611697 0.7945098 0.7453077 0.74683845 0.74761623 0.6457749 0.4628238 0.74166 0.7069067 0.68468076 0.6705456 0.70553166 0.61990327 0.40227604 0.58021736 0.5746366 0.5156678 0.4640646 0.3194462 0.33645555 0.4030348 0.39953843 0.59226865 0.5010499 0.55606985 0.47799432 0.3859313 0.24689832 -0.0879766 0.046950042 0.36139196 0.23335102 0.19414179 -0.030415218 0.14078568 0.23650557 0.7203642 0.7418806 0.74120104 0.23651841 0.21593931 0.15720692 0.10891494 -0.009970516 0.03881818 0.008034676 -0.06749323 0.23854983 0.22621521 0.11600052 0.7483127 0.73920727 0.731678 0.71563005 0.19945088 0.21444805 0.17771092 -0.059693433 -0.047032014 0.6954398 0.6801244 0.16053973 0.14596766 0.07151337 -0.30179882 0.5978059 0.5995802 0.10280169 0.12426162 -0.26223764 -0.26997918 -0.21426277 0.48172992 0.67664003 0.7054925 0.7199338 0.121501654 0.36001533 0.535156 0.6273111 0.7098766 0.7218234 0.7122823 0.17783028 0.21290621 0.052530423 0.1611862 0.1831604 0.1928284 0.2268615 0.67099077 0.38164264 0.39139515 0.56741345 0.41015926 0.4344703 0.37944642 0.46633017 0.49770316 0.415052 0.2901248 -0.31473655 -0.23195946 0.47108287 0.50286794 0.5228507 0.48643094 0.41247463 0.09011446 0.41718698 0.45742747 0.49779552 0.22038119 0.29889044 0.36433816 -0.032625817 0.53614485 0.29307216 0.188554 0.10019032 0.27291593 0.48629475 0.52978325 0.32644847 0.31887525 0.21950343 0.09180142 0.26602566 0.36924946 0.17481531 0.22834994 -0.075016394 -0.10394426 -0.089345194 -0.058562033 0.38042575 0.37949896 0.45883828 0.4706003 0.5246264 0.4884147 0.5370716 0.5461404 0.51966786 0.48375344 0.41969436 0.54995275 0.53214055 0.43628514 0.6891396 0.77238965 0.8649587 0.87147605 0.78671634 0.7311514 0.55798596 0.24876748 0.31005257 0.76409006 0.794447 0.7418539 0.7283322 0.40239137 0.33611035 0.7409731 0.74385303 0.73243684 0.3194241 0.42660218 0.69277465 0.6218476 0.61346114 0.6661091 0.70645976 0.3958884 0.28788695 0.6237053 0.49657393 0.58251315 0.49257976 0.27370533 0.26400197 0.2274778 0.4080516 0.24153963 0.27737138 0.2684446 0.22705777 0.19356 0.21435884 0.22738074 0.21855973 0.23687175 0.2489056 0.24457315 0.23951462 0.2173805 0.19651978 0.27280134 0.2741289 0.25551093 0.155898 0.23910145 0.25134313 0.1982102 0.13728438 0.15011619 0.19106165 0.23280993 0.20290816 0.03235735 0.019776264 0.13706012 0.20534065 0.23169576 0.064668275 0.16994232 0.16351819 0.43463972 0.04753329 0.17271933 0.15620746 0.12888208 0.09984904 -0.02223566 0.16213328 0.21237823 0.31301755 0.16498198 0.16787964 0.08932502 -0.14215283 0.15667845 0.28020054 0.39458033 0.4310711 0.18543465 0.1806428 0.09592997 -0.0124308765 -0.13694471 -0.24737555 0.38157117 0.44164783 0.22799091 0.21687987 0.21078284 0.22562899 0.24153927 0.115034066 0.10725444 -0.0018428713 -0.066092595 0.3245297 0.25414413 0.25183594 0.225789 0.2397525 0.07206729 -0.13172598 -0.094489776 -0.25558946 0.29597235 0.7380991 0.72888356 0.25438154 0.23313299 0.72608876 0.6793338 0.63028336 0.2065941 0.11768215 -0.22266352 -0.24915715 0.59115183 0.0923837 -0.31020516 0.53711 -0.095375225 0.38746887 0.6541708 0.6681132 0.6727252 0.14292651 0.097576484 0.0659298 0.27062047 0.57215023 0.6048806 0.60076416 0.65361106 0.2287369 0.069450706 0.20334488 0.30680978 -0.1679877 0.41569823 0.34808743 0.4212556 0.42240402 0.43471342 0.45647314 0.3909802 0.36576176 -0.21876805 -0.018761948 0.45433939 0.47760904 0.5058613 0.4699977 0.4208614 0.55584204 0.375547 0.31431216 -0.14728566 0.5680031 0.101993375 0.092675805 -0.0035780407 0.16567625 0.18704242 0.542162 0.29229277 0.2911955 0.2641892 0.44721812 0.5146332 0.17938302 0.2839155 0.29833138 0.2719065 0.122006394 -0.08315369 -0.10573939 0.3969075 0.31165618 0.39087772 0.5181881 0.51087606 0.55751824 0.56214964 0.5317416 0.5354985 0.4793244 0.5086428 0.4705153 0.49541992 0.5032314 0.42912525 0.33782595 0.5311606 0.53075725 0.21725251 0.6486373 0.6066471 0.6931946 0.709947 0.7101786 0.6731208 0.5118806 0.19220495 0.24589255 0.59530723 0.6762126 0.680283 0.36511844 0.68594 0.22907692 0.26903117 0.34592107 0.559506 0.64461887 0.34723833 0.2986418 0.57329094 0.28460974 0.19775829 -0.04538674 0.0176095 0.14258024 0.1803721 0.15712401 0.055878375 0.12935495 0.25804168 0.13378207 0.29375204 0.38546684 0.10023686 0.1384015 0.19352163 0.19694567 0.10144272 0.15115297 0.17297024 0.2454001 0.22381207 0.28386354 0.3247844 0.41774756 0.12617987 0.16297144 0.14936852 0.08752097 0.20085782 0.21767122 0.17900069 0.14532909 0.21181941 0.2864192 0.3227719 0.3574849 0.06496909 0.07059002 0.09881072 0.18362972 -0.0013762452 0.12618291 0.183814 0.21637085 0.26977623 0.26203263 0.072016776 0.1013578 0.20395327 0.19632544 0.1144502 0.03364516 0.033721566 0.11916497 0.23002878 0.17987171 0.19465476 0.20167165 0.113268405 0.17804083 0.08168988 0.12496172 0.0013806641 0.21665408 0.064172804 0.18560831 0.2565971 0.19444942 0.15995985 0.060415074 -0.059240364 0.039643154 0.09332666 0.11074629 0.13240206 0.08878323 0.010159433 0.001668185 0.026002765 0.04841447 0.17264573 0.2348618 0.25839445 0.1944049 0.1379253 0.07879665 0.056067914 0.11933906 0.0039905086 0.056753527 -0.0025554132 0.029534906 -0.06042716 -0.065697804 0.30657467 0.36016297 0.20130901 0.1328485 0.091838405 0.08103478 0.13528049 -0.03157841 -0.13772483 0.41345018 0.1234113 0.03657093 0.13318968 -0.020395406 0.13152476 0.20172316 0.2462748 0.14396621 -0.17335486 -0.18556045 -0.1745187 0.4999999 0.19241925 0.20440578 0.17089544 0.1400533 -0.17572236 0.44530234 0.24112567 0.25025353 -0.16416302 0.1917372 0.24142104 -0.012506589 0.6077268 0.6058134 0.2542902 0.22941947 -0.13017912 0.54054695 0.55130357 0.56037253 0.22158234 0.09057316 0.15688638 0.4756655 0.52357686 0.32669014 0.08860967 0.31309563 0.41634068 0.30695236 0.06871373 0.12906644 0.4325105 0.54102826 0.5636619 0.4298945 0.26612616 0.11174569 0.08105814 0.1698505 0.21591565 0.25357276 0.2162387 0.20772174 0.39326984 0.43526748 0.115098365 0.13374506 0.43435514 0.34560996 0.45921618 0.43514606 0.43159086 0.38473263 0.1399842 0.4979302 0.501601 0.480758 0.4858865 0.42200983 0.4809236 0.41895765 0.07862452 0.5623308 0.55588293 0.5364349 0.49752116 0.46967274 0.49192888 0.39012673 0.31666052 0.13053977 0.5784021 0.42267478 0.08425251 0.058317386 0.12910265 0.5616337 0.5734042 0.57844913 0.1396808 0.18835789 0.18984431 0.24177402 0.25612167 0.5391757 0.3352602 0.4181972 0.33819175 0.45319515 0.49645618 0.47583312 0.47430128 0.47273165 0.55176824 0.589996 0.5464976 0.5171429 0.5243645 0.5373856 0.5625367 0.603253 0.6150223 0.58209157 0.59859586 0.3936485 0.46767512 0.4448952 0.3443612 0.36127612 0.8720602 0.8500633 0.8072608 0.448834 0.45122474 0.27215183 0.87853354 0.8616142 0.81283855 0.70091563 0.430471 0.527301 0.5272367 0.8562679 0.8343916 0.80524635 0.120907426 0.26808482 0.57532245 0.6128873 0.76800567 0.6989534 0.3957991 0.26814386 0.08992374 0.5281117 0.18333553 0.18664183 0.081468046 -0.013058893 -0.45462215 -0.3818695 0.19949484 0.3060845 0.43193546 0.4785763 -0.2877174 -0.19345632 0.070868365 0.21419504 0.25685906 0.32915592 0.4286978 0.49177432 0.08912878 0.10659078 -0.015054411 0.46417856 0.4672584 0.09744224 0.10564167 0.10634644 0.287756 0.09568458 0.14637758 -0.009732917 0.09939065 0.1183283 0.024320409 -0.026278138 -0.027652346 0.019879587 0.003527075 0.15291424 -0.026487626 0.20346135 0.25557512 0.12359605 0.25741893 0.33707562 -0.022883318 0.38409364 0.425594 0.032479428 0.13237451 0.36313313 0.16808674 0.15365867 0.2091364 0.045685917 0.21591946 -0.010885313 0.43211165 0.4841767 0.5132896 0.28724182 -0.09205907 0.41925234 0.42100927 0.31218648 0.34445673 0.1676838 0.24538407 0.3496027 0.40040082 -0.0113843065 0.3721535 0.39960456 0.12105714 0.17736235 0.36446986 0.15344116 0.2010157 0.17824486 0.1453676 0.44752198 0.47618467 0.46459138 0.35121867 0.19285052 0.13742267 0.10525795 0.29895076 0.4042765 0.56384957 0.54077226 0.48279023 0.38139978 0.18404967 0.12488264 0.04337818 0.045140162 0.19924837 0.55181813 0.5449663 0.5710629 0.56109273 0.44430912 0.4795579 0.06495856 0.5672145 0.56859756 0.6306439 0.6384289 0.60932004 0.60255647 0.55595016 0.5257634 0.4617 0.52740073 0.5312056 0.24719492 0.5577165 0.5738027 0.57625103 0.5445904 0.47874686 0.3030715 0.13934669 -0.099221386 -0.12177406 0.32098037 0.4467342 0.4884454 0.5515692 0.56876016 0.14774457 0.24998933 0.24348062 -0.03344505 0.038123697 0.27090687 0.37470847 0.2642422 0.5153539 0.5189078 0.54492235 0.5536918 0.59683657 0.63916665 0.5967097 0.60144734 0.55291116 0.5443727 0.56703377 0.5573095 0.63602245 0.63227165 0.6433873 0.61942333 0.25168383 0.75914705 0.27389404 0.3492279 0.38974494 0.2966846 0.19338483 0.8640648 0.80517673 0.12371096 0.8808209 0.8904505 0.3649646 0.43594182 0.8338056 0.8414717 0.64813864 0.4932598 -0.034445003 0.320932 0.34465998 0.44907445 0.43451336 0.77079177 0.69347143 0.5276808 -0.1875997 0.376108 0.45255885 0.19674793 0.61638814 0.41131338 0.35090208 0.21376872 -0.01018858 -0.120352365 -0.09867411 0.12526894 0.17282839 0.35625696 0.13510758 -0.24801095 0.12578127 0.14699867 0.010273632 0.13692047 0.20107657 0.43353915 0.500267 0.10944006 0.51361984 0.51295644 0.14131871 0.43497702 0.13436614 0.13158806 0.2807525 -0.017254926 0.1949767 0.040023014 -0.11984618 -0.063449115 -0.027191684 0.022036098 -0.0103138015 0.18384776 0.26086354 0.3328771 -0.10802671 -0.046071995 0.26704052 0.36086705 0.44651353 -0.061898716 -0.06527541 0.31587616 0.24445997 0.09010276 -0.030495744 -0.059478037 0.35949183 0.33841902 0.19645867 0.057735294 0.29606593 0.14290619 0.23864897 0.0946161 0.15986565 0.092952825 0.2071096 0.115715906 0.12426829 0.15756103 0.14885384 0.20199504 0.25712582 0.24562839 -0.036668815 0.300321 -0.0528827 -0.04039734 -0.025742143 0.24276787 0.15664774 0.00071963156 0.07709095 0.54462147 0.37616485 0.16220854 0.5110116 0.5726187 0.6099068 0.55544734 -0.37206557 0.07538377 0.10659319 0.11710498 0.14648055 0.5194905 0.60585797 0.6256114 0.61762047 0.42778832 -0.31640044 0.21401453 0.13290116 0.11356302 0.18860345 0.53890824 0.5730612 0.57185507 0.6702522 0.6840186 0.6749511 0.61401296 0.56828415 0.53786194 0.46574464 0.5281837 0.26138264 0.4017747 0.46199882 0.42204112 0.26452848 0.20119517 0.4913028 0.549133 0.64419544 0.49775437 0.48981065 0.16775067 -0.16651814 -0.20311347 0.34279808 0.29457 0.4347616 0.15187985 0.21788676 0.13454677 0.07028653 -0.102476485 -0.06288789 0.4898162 0.3954159 0.37202442 0.4482016 0.46524388 0.28133783 0.2790034 0.5599612 0.5920818 0.54783964 0.5993742 0.5660042 0.5540247 0.56736165 0.62692124 0.6729628 0.6776099 0.6998931 0.61645174 0.6297064 0.63584757 0.6050496 0.63820493 0.6467262 0.14859359 0.6641117 0.6728025 0.7812279 0.7223599 0.60419893 0.3712557 0.18020017 0.17305282 0.038262807 0.6681786 0.687459 0.68353236 0.8198737 0.5507579 0.37927523 0.052399226 0.013750337 0.59391993 0.65740573 0.84825474 0.029698879 -0.08693808 0.57735723 0.6282069 0.7992034 -0.26175135 -0.28773615 -0.21652631 -0.23147254 0.3583815 0.7657688 0.7427997 0.23040408 0.667505 0.5481755 0.4611645 0.20427383 0.19797361 0.36981165 0.30705488 0.22924253 0.2703699 0.2786002 0.20390698 -0.055569824 0.4133453 0.48555532 0.06277134 0.47655848 0.100688696 0.4237529 -0.1809983 -0.2765509 -0.09717204 0.26444563 0.30548713 -0.15067229 -0.2653091 0.33020136 0.39143407 0.5245644 0.55305535 -0.108451016 0.54133236 0.56427556 0.28266904 0.15672293 0.09282785 0.47643837 0.5396678 0.3065553 0.31370807 0.2964884 0.40524837 0.2595016 0.1865861 0.2049122 0.14176068 0.027775329 0.08319329 0.050593007 0.23654798 0.29921642 0.31587377 0.13020878 0.34758118 0.15220104 0.2665612 0.06770011 0.2504714 -0.073599055 -0.061845638 0.1695431 0.1372039 -0.0708424 0.17241481 0.5869514 -0.304003 -0.119240224 0.19819343 0.19589637 0.6564999 0.6852376 0.18444718 0.6832746 0.6987736 0.6856372 0.6139173 0.48414773 0.46727264 0.3336203 0.4029902 0.36548758 0.33103722 0.56086 0.5434215 0.53971136 0.661068 0.37323788 0.40015408 0.19460765 -0.23271783 -0.2278787 0.376411 0.52147675 0.49132568 0.46979535 0.39500406 0.64855254 0.6394137 0.6116753 0.5234107 0.18194386 0.23634624 0.010548277 