# vtk DataFile Version 2.0
Really cool data
ASCII
DATASET POLYDATA
POINTS 4226 float
3.2191048 -3.847771 34.86252
3.118246 -3.8541384 35.470745
3.1776505 -3.8635294 36.097507
3.2204595 -3.4285018 34.631725
2.9207873 -3.2445579 35.523705
3.111001 -3.2966757 36.527008
3.2181356 -3.1976395 36.77837
3.084403 -2.673006 35.15134
2.9877996 -2.660859 35.658955
3.0457647 -2.6399841 36.32536
3.2477245 -2.691022 36.854576
3.149733 -2.2722504 35.72132
3.2166038 -2.228106 36.21204
4.073996 -4.8338223 33.913086
3.893981 -4.774476 34.628597
4.0759473 -4.194525 33.104164
3.8412085 -4.4257216 33.68699
3.6175508 -4.383076 34.19257
3.4622202 -4.217927 35.2958
3.5698047 -4.0534315 36.416233
4.0012584 -3.8926148 37.12948
4.074737 -3.6318939 33.13366
3.7356455 -3.488995 33.524635
3.7354803 -3.3423052 37.253525
4.116004 -3.2391777 37.655933
4.089128 -3.1741846 33.31568
3.8971844 -2.7706623 33.977192
3.4926972 -2.7744849 34.398212
3.704907 -2.7038784 37.32619
4.1290717 -2.7944372 37.658993
3.7128165 -2.1864288 34.907215
3.424849 -2.0720887 35.646008
3.740622 -1.8888268 36.420383
3.9422276 -2.0491288 37.093285
4.697256 -4.8499765 33.21095
4.7049046 -5.080742 33.62172
4.54722 -5.162027 34.228542
4.6810126 -5.0874944 35.21396
4.5308037 -4.7901287 36.064335
4.6564174 -4.314976 32.88299
4.483183 -3.9930825 37.29024
4.6295233 -3.6952202 32.836704
4.490033 -3.537023 37.53494
4.4692335 -3.27485 37.66172
4.601986 -3.0639079 33.06789
4.250197 -2.3331425 37.537483
4.3967986 -2.597317 37.67311
4.73304 -1.9121183 34.60482
4.1824613 -1.6928746 35.496162
4.33005 -1.6847996 36.62275
4.384497 -2.0429947 37.288296
5.3186135 -4.8957067 32.996662
5.473178 -5.338015 33.501312
5.2295074 -5.3539205 34.583725
5.4464355 -5.3432946 35.402046
5.223228 -4.7706013 36.575054
5.3192163 -4.3106117 32.69075
5.5608544 -4.30254 37.169983
5.40402 -3.750963 32.659077
5.3995304 -3.4237065 37.658215
5.2436996 -2.6022513 37.677757
5.704259 -2.3414724 33.5174
5.416198 -1.9532021 34.213604
5.482715 -1.6336068 36.359486
5.7879624 -2.0603151 37.322376
6.2562523 20.053888 33.774532
6.250779 19.935995 34.547066
6.3115144 20.034986 35.020954
6.229815 20.529558 33.65807
6.1405945 20.507118 34.374275
6.294175 20.39314 35.107464
6.2651324 21.125566 33.854897
6.2672434 21.178476 34.561337
6.3645725 21.176252 35.03276
7.0399613 -5.755659 34.843258
6.481453 -5.0836043 33.253197
6.5553045 -5.264978 33.605537
6.469189 -5.2743416 35.90885
6.4087234 -4.7738686 36.899006
6.1642346 -4.362366 32.71268
6.2573776 -4.2407827 37.36719
6.581686 -3.8405356 37.616344
6.3342156 -3.7855208 37.60198
6.3850613 -2.955594 37.660408
7.002561 -1.7190521 33.47044
6.4859204 -1.4878298 34.980545
6.8305964 -2.1165476 37.052505
7.275168 -1.1347294 35.16924
7.2994924 7.300843 38.94625
7.163304 7.8936276 38.144405
6.997299 7.8875637 38.725563
7.1425233 7.634994 39.570797
7.212802 7.8049345 39.987686
7.1652913 8.5784235 38.008545
6.8601346 8.5419445 38.61804
6.8820376 8.561194 39.38011
7.192999 8.384844 39.995907
7.144155 8.955045 38.073822
6.959556 9.073472 38.690754
7.029736 9.077963 39.283543
6.903186 19.303444 33.81334
6.7868414 19.223347 34.6507
7.010471 19.251167 35.20075
6.918474 19.801498 33.137634
6.54976 19.772491 33.60452
6.537793 19.543844 34.708088
6.6863866 19.644705 35.306305
6.9396667 19.691275 35.68688
6.7251163 20.614124 32.992905
6.5202 20.43134 35.502323
6.9466934 20.450138 35.91842
6.6360116 21.239038 33.243523
6.4847918 21.536533 33.86273
6.5021467 21.662622 34.74848
6.6447015 21.507639 35.304604
7.079338 21.454268 35.769787
6.975177 21.995264 33.838264
6.7151365 21.986544 34.602333
6.937846 21.92931 35.24958
7.6986394 -5.7385883 34.01504
6.981457 -4.449308 33.061916
7.311608 -4.0713396 37.39231
7.386864 -3.639083 37.513657
7.257745 -3.4968548 37.59105
7.322343 -2.5676935 32.740932
7.4583745 -2.5730228 37.43083
7.7804923 -1.8374426 32.94604
7.493918 -1.7823706 36.70037
7.76368 -1.1759756 33.68385
7.5750914 -0.986738 34.330585
7.723649 -0.6435884 35.297688
7.8486905 -1.2617412 36.199314
8.01207 7.218531 37.9978
7.790631 7.013662 38.428585
7.7182207 6.9513426 39.568317
8.043855 7.0520253 40.239166
7.815192 7.9746428 37.342007
7.6319838 7.8022866 37.729378
7.7962 7.4234185 40.423344
8.020795 7.622526 40.638477
8.06106 8.369502 37.127823
7.484043 8.601363 37.674732
7.5880694 8.377512 40.36933
7.959617 8.147263 40.611637
8.309811 9.008636 37.055164
7.7368174 9.313712 37.83598
7.354631 9.438606 38.448494
7.5238256 9.41671 39.459873
7.7813735 8.964696 40.147568
7.9965076 9.76003 38.663887
7.6930785 9.65581 39.21267
7.250147 18.965727 34.883904
7.6765156 19.040356 35.272655
7.881098 19.16743 35.839634
7.198917 19.773088 32.96865
7.4573903 19.71953 35.964752
7.345559 20.16846 32.622566
7.3340216 20.483772 36.152306
7.3940835 21.356628 35.931316
8.410856 22.461945 31.75316
8.281216 22.794807 32.557446
7.3524256 22.176764 35.2145
8.470261 23.44393 31.272158
8.327282 23.921957 32.12405
7.921109 22.620777 34.602814
8.43725 24.091572 31.541908
8.396127 24.202785 32.383472
8.153028 -5.3815203 36.260674
8.524289 -4.186261 32.726395
8.224381 -4.409716 37.102993
8.887075 -3.7870276 37.15925
8.913701 -2.3689857 32.54838
8.955082 -1.4108152 37.01406
8.239512 -1.2709715 33.167633
8.915263 0.12241036 34.455757
8.524536 -0.12978107 35.087814
8.99978 6.059429 38.835114
9.243308 5.896216 39.524395
8.760277 6.7785544 37.7584
8.639061 6.9153113 40.37349
8.517875 7.4878616 37.17542
8.331416 7.311955 37.362526
8.276518 7.549088 40.67403
8.809655 8.807723 36.58834
8.370421 8.7358675 40.52526
8.5728445 8.421286 40.708897
8.651286 9.186525 36.872368
8.37519 9.451682 37.42654
8.714386 9.295087 40.020306
8.218924 9.6013775 37.792454
8.525319 9.795617 38.449135
8.389845 9.6898365 39.21896
9.118386 16.063416 32.564865
9.123122 15.996192 33.543404
9.107158 16.032143 33.946545
9.256966 15.972431 35.520756
9.386884 15.88598 35.925575
8.97911 16.352774 32.647446
8.891124 16.42744 33.348457
9.131382 16.790174 34.604233
9.378546 16.498175 36.36182
8.74239 17.787462 33.65972
9.267272 16.923489 36.025173
8.834482 18.638905 32.78811
8.809316 18.514866 33.279213
8.218546 20.133274 32.5822
9.022207 20.005835 36.63983
9.120488 20.78089 31.012814
8.706022 20.510502 32.218147
8.868055 20.755243 36.687817
9.288647 21.905127 29.8406
8.995522 21.563791 30.37922
9.118289 22.421965 29.991743
8.616155 22.681625 30.82887
8.956953 22.485851 34.973198
9.044235 22.320631 35.907955
8.765394 23.91427 30.732765
8.741033 23.422174 33.464504
9.266014 24.737991 30.380995
8.812936 24.334661 30.68993
8.597285 24.45687 32.42102
8.883484 24.652584 32.97167
9.135427 25.32742 30.867662
8.796133 25.125093 31.444912
8.959399 25.244934 32.305897
9.150878 25.67678 31.72515
9.306846 25.885199 32.013607
10.164671 -9.1175785 33.929176
10.144708 -9.097151 34.429066
10.177083 -8.910318 34.90703
10.030028 -8.282742 33.447487
9.874416 -8.682473 34.40939
9.985455 -8.789457 34.8572
10.081231 -7.531233 33.158752
9.598745 -7.636654 34.44652
10.072429 -7.75244 35.473507
9.796476 -6.140847 33.045696
9.955992 -6.683918 36.005802
9.495892 -4.636337 32.964546
9.326892 -3.575894 32.445038
9.184546 -1.6496421 32.849243
9.928437 -1.0941871 37.406338
10.062464 -1.2344658 39.359257
9.854276 -0.386239 39.473484
10.238446 -0.38134608 40.24965
9.8723 0.9398475 36.44957
9.814554 0.6001138 36.961494
10.084528 0.5351319 39.585663
10.303028 0.34574294 40.28155
10.24227 2.0095387 32.666092
9.960403 1.412884 33.381172
10.082661 1.1491228 37.51787
10.203608 0.9576792 38.947292
10.169608 2.0995595 32.721127
10.021796 2.415829 33.199932
9.892225 2.0022023 34.720894
9.747729 2.3669286 35.7789
9.922069 2.7675207 36.65685
10.225872 3.453396 32.86977
10.103712 3.330939 33.637592
10.373122 3.6024752 34.389454
10.433853 4.1387496 32.406292
10.372379 4.005551 33.180862
10.330254 5.131977 37.903404
10.174539 5.1412582 39.10421
9.660199 6.268671 37.448925
9.388193 6.0821176 39.725697
9.885164 6.9209166 36.864326
9.593165 6.3812094 40.319168
9.743184 6.845875 40.656727
9.770333 7.7789145 36.43345
9.662168 8.396928 36.36186
9.547495 9.365784 36.69693
9.460779 9.299701 39.713318
9.02225 9.371713 39.930008
9.663592 9.668201 37.049725
9.379504 9.821903 38.616135
10.416321 13.267211 42.69731
10.4603615 13.390184 43.18735
9.970248 15.291634 33.488224
10.0589485 15.1787405 34.31348
10.302782 16.12694 30.98359
9.726365 15.91844 31.862139
9.519363 15.726092 32.562706
9.489297 15.529133 33.537518
9.645018 15.512878 35.624817
9.772718 15.83182 36.413673
10.108218 16.03076 36.978127
10.192217 16.41718 30.892561
9.64154 16.398542 31.621658
9.498531 16.482363 36.49476
9.9792 16.426872 36.961166
10.231402 17.003345 30.71472
9.578313 17.453382 31.6508
10.053436 17.065315 36.900265
10.21185 18.683771 31.939266
9.753107 18.624748 36.173347
9.606907 20.187225 31.777885
9.571943 19.90723 36.84986
10.256914 20.448431 30.068033
9.698207 20.60937 31.263487
9.740409 20.853464 36.981586
9.442133 21.769957 29.702961
9.615027 21.586443 36.794052
9.498243 22.460806 29.673018
9.630866 22.203165 36.310127
9.613333 23.285877 29.764334
9.292013 22.695612 34.96583
9.750133 25.109404 30.125032
9.408463 25.638231 30.736025
10.076563 24.90887 33.90445
9.881437 26.190332 30.648825
9.572162 26.02854 31.436382
9.698008 26.087809 32.51376
10.198798 26.902176 30.90948
10.195805 26.90265 31.356735
10.782164 -9.577699 34.02251
10.743464 -9.557627 34.335144
10.892669 -9.047703 33.203594
10.726873 -9.310827 33.606617
10.590693 -9.466919 34.36371
10.702378 -9.177574 35.06016
10.784239 -8.3566 32.915825
10.466568 -8.652393 35.31348
10.942582 -6.9528823 32.58267
10.390873 -7.813805 35.46889
11.045683 -6.891836 32.43174
10.682535 -6.440129 32.51108
10.419078 -5.8578033 32.525494
10.341327 -4.22546 32.512184
11.129323 -4.6282563 37.190838
10.971389 -3.6878397 37.502728
10.686667 -2.2332294 32.309616
10.398796 -1.7326139 39.11522
10.389848 -1.1086432 40.098156
10.617044 -0.64184487 40.554607
10.910029 -0.1744699 40.995014
10.91709 0.6074846 41.18407
11.12824 1.8129488 31.826298
10.486255 0.97842276 40.37319
10.982799 1.2299372 41.138443
[...]
POINT_DATA 4226
SCALARS features_00 float 1
LOOKUP_TABLE default
0.8076608 0.83643293 0.85767645 0.8080996 0.86487764 0.8741245 0.8578867 0.83766675 0.8706467 0.88683647 0.8608844 0.8596163 0.8753364 0.746791 0.7326642 0.77073467 0.77356505 0.7729389 0.7897639 0.8247682 0.7428159 0.7711251 0.78088844 0.78947794 0.7430881 0.751915 0.7478682 0.7844169 0.8105184 0.7626562 0.7687254 0.8356996 0.8528495 0.8224549 0.73091424 0.7181115 0.7019713 0.65713257 0.69657034 0.74526846 0.67112195 0.7432785 0.6863116 0.7008007 0.71286535 0.7733153 0.7439533 0.61469483 0.7721776 0.8235303 0.78511834 0.6846076 0.6531278 0.63326 0.5821606 0.5972275 0.6933404 0.5603099 0.68307185 0.6033012 0.66509366 0.47453937 0.45781183 0.66489613 0.6535106 0.7841083 0.774552 0.7631679 0.7939454 0.7959881 0.77524817 0.77893376 0.77743185 0.77148974 0.5312969 0.5605565 0.5520422 0.52910995 0.45795572 0.5906818 0.4927246 0.48724636 0.508918 0.5341659 0.3390664 0.34278145 0.4861575 0.31023842 0.9051889 0.8178582 0.9361842 0.9587227 0.9155909 0.84570146 0.95433676 1.0 0.97124183 0.8702048 0.9623226 1.0 0.66399443 0.7022029 0.6898539 0.63755286 0.7432064 0.7396393 0.72067404 0.6969655 0.71949697 0.75987005 0.73267055 0.7249763 0.7330695 0.7429837 0.7493079 0.72286224 0.6230248 0.6976162 0.7027755 0.4282385 0.46375403 0.41778356 0.44504136 0.45720768 0.36672938 0.47151762 0.35217953 0.34856263 0.3321116 0.29174444 0.2812795 0.23757824 0.67648286 0.7277297 0.7647518 0.6817608 0.7316475 0.7473662 0.77868235 0.78346574 0.74514985 0.8027067 0.89550245 0.8365704 0.7741636 0.83529437 0.9086734 0.96723205 0.91969013 0.8747197 0.9241047 0.63944566 0.600631 0.5761031 0.5228114 0.6495482 0.46533924 0.69176495 0.6942877 0.36752933 0.32177123 0.63923013 0.4131509 0.40409836 0.47505277 0.43165553 0.40047115 0.37985176 0.13924621 0.3549442 0.28884652 0.36126488 0.04039277 0.36711687 0.19663465 0.22957161 0.50084865 0.36517933 0.56789404 0.5836687 0.64050543 0.6363199 0.73732626 0.74408174 0.8096975 0.7566697 0.7665946 0.78964025 0.7672926 0.8110104 0.8167852 0.8294368 0.44692582 0.42836 0.4237409 0.48118538 0.48610914 0.4150275 0.39029336 0.37488127 0.45252174 0.33781806 0.4026699 0.14689824 0.22729824 0.13857144 0.3411621 0.17734057 0.0512542 0.41070294 0.32155603 0.33793133 0.35898715 0.3984182 0.4240256 0.48027205 0.43622035 0.266924 0.45104665 0.44917768 0.40773773 0.3714266 0.4322239 0.43713874 0.41904855 0.41080454 0.3923171 0.8240336 0.7976301 0.7513436 0.84267527 0.7682009 0.7423955 0.6151935 0.70471764 0.57187814 0.27339467 0.23986481 0.067528084 0.2255008 0.33970302 -0.08097486 0.46901086 0.46533936 0.5617336 0.08668563 0.048335284 0.4506126 0.5622399 0.43087882 0.27659744 0.06627351 0.27005947 0.4153194 0.33026528 0.19122328 0.17625992 0.14587659 0.3895054 0.32438678 0.29363257 0.5341351 0.4373897 0.36742774 0.24832515 0.46811548 0.36160338 0.53922874 0.3273638 0.35654157 0.65720344 0.6694975 0.6956996 0.6102475 0.70673925 0.6869203 0.6855689 0.8757862 0.8710213 0.44814113 0.45806995 0.47399068 0.49336863 0.47527766 0.45292044 0.51340544 0.50181746 0.5286699 0.46215358 0.46719605 0.4580007 0.48426187 0.42165965 0.37498206 0.38545835 0.120088354 0.19737867 -0.03307195 0.27419174 0.20432575 0.11209433 0.31979784 0.30549717 0.373628 0.32317117 0.39463717 0.35990435 0.37815976 0.4353754 0.41665232 0.29945302 0.40640968 0.38869607 0.36355293 0.3942632 0.37067094 0.84070355 0.82890683 0.850173 0.84971595 0.8238797 0.76023304 0.7504188 0.68931466 0.48897517 0.5579933 0.47076896 0.38737464 0.2571704 0.17673789 0.0685214 -0.01792543 0.13422067 0.37588876 0.50796056 0.5636282 0.61023384 0.6298547 0.45481142 0.5442752 0.610656 0.056620065 0.3359477 0.55108523 0.69086283 -0.009319052 0.74610126 0.7026001 0.586169 0.19571534 0.06827695 0.74893665 0.6746399 0.62983453 0.5582894 0.3861081 0.11307769 0.74525845 0.5589194 0.5669415 0.60932505 0.40765804 0.6132158 0.4836965 0.5116721 0.6984941 0.5930377 0.6147007 0.7897482 0.82923305 0.77489924 0.6882961 0.8584949 0.88416684 0.863543 0.7975 0.47913924 0.46508026 0.3826099 0.47928566 0.5880312 0.92460936 0.90068805 0.8477248 0.45428997 0.47121763 0.55272615 0.5995368 0.4278086 0.45304096 0.37667745 0.40463403 0.51129764 0.316882 0.20967792 0.30588424 0.2597042 0.4796859 0.3519212 0.27866727 0.48307693 0.40519243 0.28035888 0.40708342 0.23729216 0.3512342 0.4387371 0.3361665 0.44927275 0.4242009 0.38520795 0.3583448 0.35622 0.40138614 0.39673328 0.38654783 0.8489193 0.8320321 0.83714217 0.85566795 0.81545794 0.78599894 0.7050332 0.63989866 0.59366983 0.60239005 0.22845176 0.15997794 0.17487365 0.30692896 0.22541904 0.23100436 0.17984508 0.06293541 0.41929755 0.5493611 0.14500496 0.61350775 0.31287524 0.63404727 0.39842004 0.62193495 0.6220703 0.51646763 0.54186916 0.6902859 0.04644558 0.7580458 0.01347056 0.77099144 0.7729454 0.5399305 0.23965219 0.07185509 0.18514168 0.78165716 0.7867151 0.7738699 0.6616887 0.24055168 0.43675402 0.21512902 0.20706365 0.4692136 0.4492178 0.2851301 0.20133215 0.24443819 0.23235866 0.17735827 0.22184935 0.23395433 0.2899519 0.5906303 0.56146383 0.48256806 0.4838764 0.6280332 0.5774778 0.9011207 0.7148481 0.66957164 0.43075395 0.29918408 0.35821235 0.48041928 0.5589867 0.92662835 0.9173255 0.85153794 0.75211203 0.6950393 0.42708457 0.8274964 0.4041314 0.5506966 0.2798693 0.4449776 0.13658142 0.3531168 0.18988371 0.44736344 0.40981767 0.54835904 0.53160536 0.20848122 0.5704461 0.5520016 0.21290618 0.57204175 0.3537921 0.19566712 0.057281468 0.19927645 0.29896903 0.3287946 0.50079346 0.4706498 0.41065955 0.3803936 0.5090618 0.5257375 0.45856297 0.8190627 0.8528926 0.8341942 0.784546 0.71606815 0.68198436 0.5832974 0.59906316 0.21652064 0.21962166 0.3595463 0.2297318 0.25975528 0.35347033 0.2812463 0.3387819 0.2939221 0.21395391 0.11872466 0.47845346 0.16085273 0.13476211 0.5892564 0.59197307 0.35329252 0.30427846 0.57431656 0.4370384 0.4917401 0.21701773 0.74005866 0.7525224 0.34853315 0.77407575 0.7914969 0.8107671 0.6173112 0.05029276 0.2926259 0.29420394 0.25249282 0.17989425 0.15237065 0.29853496 0.14603154 0.3703109 0.32560745 0.042593986 0.19588399 0.075689286 0.17554879 0.3421858 0.39894563 0.5157852 0.103611484 0.6360079 0.54114926 0.34547296 0.18668403 0.17192456 0.27132252 0.33172634 0.54277885 0.6205559 0.7099501 0.6594093 0.60849845 0.33303317 0.33242914 0.43996772 0.707862 0.610789 0.32823437 0.4169531 0.2633739 0.2898233 0.15755388 0.11875583 0.42128384 0.32780358 0.5346912 0.50715387 0.19582994 0.16592856 0.56210124 0.53918564 0.20338243 0.60500276 0.58137405 0.21346718 0.57589626 0.12341988 0.21124612 0.43500876 0.14509277 0.20918176 0.21639249 0.20222303 0.42362642 0.31934857 0.4872302 0.49124116 0.51403356 0.57196677 0.524546 0.52966094 0.59546643 0.6614313 0.6340879 0.614607 0.77693415 0.8226177 0.8315196 0.7121074 0.8099253 0.59209335 0.18837447 0.41320577 0.22574109 0.25194165 0.32881665 0.274023 0.3102218 0.34059516 0.35015345 0.3155266 0.28619468 0.32976016 0.20217168 0.066903226 0.3182145 0.09135671 0.029940695 0.03574209 0.46826005 0.1954706 0.47498974 0.3995074 0.41460982 0.35094625 0.6308373 0.32109833 0.68715173 0.70517194 0.6865362 0.31078362 0.3464101 0.35469314 0.31476277 0.4677965 0.740946 0.5757742 0.18301474 0.21741286 0.17280276 0.4958427 0.46995187 0.22204733 0.08778671 0.48455948 0.46703988 0.40303054 0.24594693 0.3857506 0.4622218 0.3995762 0.31403607 0.22233182 0.18259639 0.17572844 0.28350598 0.1770784 0.07933404 0.21747868 0.12242618 0.23085546 0.34573546 0.19760102 0.18907423 0.25480714 0.25595757 0.46544152 0.40006974 0.28519636 0.2717854 0.59523135 0.5344208 0.53837067 0.27820173 0.29469636 0.27586392 0.25151217 0.3448073 0.53802603 0.50547224 0.08659205 0.58205974 0.5832026 0.15878998 0.62847584 0.6448095 0.19201267 0.6232059 0.5388168 0.20168018 0.40895116 0.08472364 0.12096291 0.2668581 0.12378332 0.41230345 0.25015968 0.47839093 0.40289003 0.4998622 0.53378516 0.581431 0.5453489 0.6027403 0.66326934 0.6641329 0.6233805 0.6469091 0.6747606 0.67460865 0.73778784 0.7804488 0.6102632 0.25433177 0.29955903 0.24990842 0.27155793 0.2668781 0.27864015 0.28143543 0.22031479 0.17599368 0.34401786 0.31365538 -0.036901355 0.030633256 -0.24545643 0.4045456 0.015968055 0.45620722 0.4765938 0.45015323 0.4106211 0.51748455 0.52301806 0.37070835 0.5673091 0.3216752 0.28065628 0.6384703 0.63579744 0.652219 0.59243596 0.4530836 0.19531985 0.23875928 0.12397739 0.26136318 0.44173703 0.4172355 0.37857494 0.28408396 0.6056155 0.23801085 0.15745035 0.40923855 0.38329232 0.29533306 0.2916527 0.22113399 0.39886802 0.30673376 0.25716472 0.3599586 0.21671098 0.21130313 0.32149634 0.2920941 0.22576967 0.25393543 -0.11232405 0.39138755 0.20232907 0.17367494 0.2074309 0.28245783 0.31966716 0.25807163 0.058552116 0.15225434 0.09862951 0.18906905 0.08264521 -0.0056795618 0.22509395 0.21980067 0.22869757 0.13528666 0.3017727 0.25592083 0.2709263 0.27661568 0.14976513 0.2253775 0.17686874 0.14673781 0.18265949 0.06724556 0.07705539 0.61244243 0.57541084 0.12948996 0.1020964 0.58852553 0.1747272 0.588586 0.53729355 0.17882384 0.29205054 0.40296 0.49666998 0.53956723 0.542586 0.6206595 0.62988055 0.6615054 0.6388876 0.6634448 0.67545354 0.67336464 0.425035 0.49561375 0.46136498 0.40476936 0.37427908 0.23075622 0.31209147 0.26537475 0.27306405 0.05470471 0.34769404 0.35549784 0.30434012 -0.112979636 -0.10263512 0.25310373 0.38690242 0.44097576 0.50764376 0.5643194 0.36066535 0.27886105 0.19928856 0.22057906 0.37879103 0.5267607 0.17822696 0.19866335 0.42423198 0.58138037 0.55265945 0.15039942 0.06226869 0.09654706 0.29637954 0.39688912 0.6322511 0.23964739 0.22035405 0.17899486 0.31991047 0.31444967 0.28552523 0.27564466 0.29147628 0.29555678 0.5662864 0.47885823 0.23381855 0.21598385 0.23921508 0.24778202 0.1875709 0.25894824 0.29316854 0.29109338 0.31994838 0.23710601 0.1807805 0.19660833 0.22291207 0.23374285 0.29384738 0.35880566 0.40987957 0.21849427 0.2090807 0.19384399 0.38584673 0.43639365 0.22577709 0.22190946 0.19551055 0.2912352 0.40426302 0.4417154 0.2741617 0.09806612 0.15816589 0.34403092 0.4078848 0.44747865 0.13067468 0.30114695 0.41925678 0.4529111 0.1952882 -0.12621443 0.1337606 0.39763153 0.42675403 0.44547927 0.32618117 0.210971 0.08483246 0.26189232 0.34192413 0.11964089 0.13418363 0.12459329 0.018486198 0.039581805 0.2958841 0.033312857 0.033039905 0.056704324 0.17818972 0.07039489 0.052511528 0.15520492 0.07667486 0.09836346 0.16189636 0.11695367 0.10377966 0.09007822 0.23721221 0.19116104 0.22592191 0.07443154 0.18238746 0.19491221 0.14924398 0.1819973 0.12092344 0.12568451 0.08042303 0.50620604 0.35894775 0.16513282 0.44242853 0.3366224 0.20750245 -0.19900113 0.096121915 0.20849133 0.0080310805 0.29450548 0.05515011 0.3648417 0.48969144 0.6079056 0.64848375 0.69685495 0.70426655 0.6535134 0.62848544 0.6842809 0.6654655 0.53427553 0.5264664 0.5196998 0.53665054 0.41227195 0.37178934 0.34199983 0.32141042 0.13558549 0.33258107 0.007316947 0.36144054 0.338767 0.11578495 0.28362885 0.34643403 0.34953958 0.65507984 0.15904704 0.07675483 0.28196386 0.28235832 0.24448833 0.32215363 0.22174819 0.24056691 0.26671755 0.24316816 0.3833417 0.36366123 0.20096453 0.22694789 0.40735567 0.55257785 0.56180066 0.5852821 0.22885898 0.43691444 0.4233343 0.55174387 0.51248276 0.50977206 0.22871187 0.23689672 0.43936932 0.3906843 0.52779037 0.5140917 0.39441806 0.29826897 0.44033748 0.22923692 0.026775252 0.22888097 0.42678392 0.14749269 0.13343072 -0.006869167 -0.007561378 0.32241514 0.3604045 0.12859063 0.12589955 -0.03256487 0.016195193 0.02398815 0.20361534 0.27213052 0.31486818 0.30709442 0.042337414 0.23317006 0.04769145 0.18266162 0.19551149 0.3303427 0.17436135 0.20325477 0.19601056 0.25937518 0.436777 0.46133882 0.23544557 0.12910686 0.27833033 0.49266893 0.52071166 0.22307141 0.18121998 0.46154946 0.52002835 0.21317017 0.21349958 0.25778192 0.21580791 0.18295239 0.15356895 -0.15183568 -0.007269062 0.36000395 0.5218955 0.5458366 0.48958057 0.659987 0.533823 0.6964947 0.69684917 0.67465365 0.62031543 0.59056854 0.57962483 0.5921422 0.5778364 0.631887 0.61566484 0.5221795 0.5262902 0.597976 0.4532472 0.36035067 0.343015 0.12057048 0.37480956 0.3905275 0.35923538 0.4159363 0.44798997 0.44463834 0.0858999 0.39668992 0.39284796 0.43013245 0.13544843 -0.016076326 0.31631592 0.34592295 0.39359075 0.25037774 0.21792865 0.26451522 0.3207252 0.20670506 0.26826924 0.6307932 0.644678 0.46632227 0.23645926 0.36359614 0.5095699 0.16587058 0.333206 0.49461457 0.23578072 0.18665561 -0.09686167 0.071423054 0.33059943 0.48368967 0.37406367 0.33562833 -0.2238982 0.37335473 -0.15370815 0.35429877 0.072592735 -0.119674444 -0.0012587309 0.25635868 0.2803027 -0.16443807 0.17143747 0.20128575 -0.056808826 0.36157322 0.006284885 0.096228786 0.46050677 0.1762132 0.12686372 0.16488326 0.16664809 0.5408054 0.5396921 0.20083255 0.20491326 0.20922111 0.26586717 0.40707415 0.5200945 0.5411871 0.21950425 0.47296202 0.3348264 0.29729745 0.30520877 0.3668128 0.29538822 0.32073462 0.2609685 0.19634843 0.21915922 -0.10604164 0.25085115 0.10098214 0.46860865 0.05800142 0.63170826 0.15714847 0.6744826 0.565498 0.637501 0.6550275 0.69485044 0.6059027 0.60693675 0.6372973 0.5976588 0.7236637 0.68327236 0.66697156 0.61689603 0.5788428 0.61298275 0.63106436 0.5881933 0.6399137 0.56561315 0.51460046 0.63355684 0.48138314 0.56626594 0.39659446 0.3512964 0.37785268 0.35936287 0.37975878 0.5065098 0.47985315 0.4055258 0.42842156 0.51709795 0.58472836 0.60519475 0.49649328 0.14669946 0.14739484 0.3214041 0.41090983 0.45153305 0.46779794 0.49040043 0.5320284 0.2049142 0.17865832 0.16333303 0.0067877546 0.17278162 0.46970654 0.4653358 0.2490354 0.4163267 0.18214762 0.3397414 0.5338318 0.39394897 0.3009202 0.095080234 0.43954897 0.2720649 0.19713894 0.37864962 0.4630546 0.23086444 0.17340767 0.40495074 0.43585306 0.119495936 -0.32870165 0.28035462 0.36415946 0.071639255 0.008353535 0.2894006 0.30815834 -0.08036129 -0.07365047 0.3206184 0.26618814 -0.005119305 -0.13122109 -0.05098532 -0.11405465 0.32086018 -0.0024972558 0.278094 0.3069951 -0.14101346 0.052992523 -0.31376687 -0.14140564 0.17303738 -0.02355244 -0.15041398 -0.09594567 -0.4253475 -0.067260064 0.32314596 -0.055831358 0.066449136 0.46061414 0.3851422 0.09042522 -0.010814756 -0.1106457 0.5093875 0.16517386 0.18612528 0.21158858 0.50742704 0.52331996 0.527761 0.24787015 0.30652836 0.22950612 0.21519761 0.40370062 0.45177162 0.46539375 0.37206277 0.36719072 0.0044695437 0.11988991 0.35044748 0.3880498 -0.010073692 0.1634705 0.23493436 0.40064496 0.26863822 0.5784492 0.21220191 0.69990885 0.7329339 0.2849843 0.7198364 0.7640872 0.30159736 0.73112047 0.77483475 0.7937492 0.570112 0.7080401 0.809168 0.79787934 0.82133627 0.6004757 0.55512524 0.6069837 0.6385486 0.5989966 0.6251833 0.5975615 0.54643375 0.54942447 0.58673877 0.52466977 0.62253654 0.5411796 0.6120839 0.41516173 0.6070101 0.4620327 0.40524694 0.35512063 0.40879202 0.42660093 0.3020593 0.35951024 0.47470033 0.3496831 0.36443523 0.40681085 0.24882881 0.10556615 -0.06631881 0.07965075 0.12073445 0.035403863 0.016392304 0.27678436 0.4319463 0.45779157 0.3116496 0.20052013 -0.019345902 0.033702016 0.078699954 -0.004247844 0.4594519 0.33496416 0.35285702 0.2602275 0.006029412 0.40724427 0.3578691 -0.017990638 0.4512829 0.27545416 0.017512418 0.06719356 0.15129691 0.3294319 0.3322053 -0.022891097 0.059666738 0.30578598 0.13875534 0.0065003503 -0.26781416 0.29681623 0.27446404 0.027857501 -0.35712478 0.17677532 0.24348205 0.00050832704 0.14336576 -0.056528404 -0.19708419 -0.2065252 0.2637188 0.16752627 0.32469326 0.30035093 0.25557828 0.10229315 0.25621757 0.30889726 0.11558582 0.1656842 -0.42141634 -0.43036032 -0.23093858 0.22154453 0.11050951 -0.66601706 -0.40249693 -0.2709602 0.37613106 0.39743704 -0.44900346 -0.22729552 -0.13748544 0.47423947 -0.121684864 0.043220848 0.16785063 0.44996995 0.4776679 0.28647423 0.23665188 0.27463356 0.18084648 0.18443196 0.19021438 0.22561914 0.40567628 0.42118388 0.36782664 0.48093313 0.39305437 0.41628593 0.41742748 -0.009955622 0.026007943 0.05802322 0.090134844 0.43816203 0.41558844 0.42205676 0.47638246 0.5092878 0.44539142 0.2587006 0.37049317 0.3434366 0.45521986 0.4234212 0.42056692 0.58748 0.65338147 0.46510684 0.47089282 0.75848675 0.7607659 0.51582897 0.8107008 0.517894 0.59451544 0.8595066 0.84265685 0.5942912 0.7155052 0.8025811 0.88750625 0.8823744 0.5592234 0.5456753 0.5605941 0.5967494 0.59835494 0.57641983 0.6070459 0.61103785 0.43393192 0.42348284 0.42987832 0.31412518 0.14281046 0.2679292 0.32142258 0.5667356 0.3816219 0.10326404 0.012547269 0.24468012 0.30489635 0.3114335 0.29567382 0.4880278 0.20052099 0.11475167 0.20658001 0.23120016 0.22010219 0.21207568 0.34554008 0.3845863 0.119273864 0.25547555 0.28020504 0.32832062 0.13264024 -0.02011723 0.019456834 -0.16538252 0.095042154 0.22643429 0.33687076 0.32786563 0.18254052 0.11783208 -0.024126977 0.17954549 0.14642626 0.17604902 0.32023054 0.34165916 0.31903154 0.1991255 0.13882014 0.021324828 0.08790448 0.10480328 -0.11940899 0.45216256 0.71347576 0.7409053 0.34799916 -0.19562651 -0.20240074 -0.16297315 -0.017926002 0.70623636 0.75638556 0.2991688 -0.14262554 -0.16356489 -0.059972502 -0.0573736 0.5835421 0.7087757 0.7503902 0.2514602 0.24021049 -0.22277659 -0.10221553 -0.1445834 0.23018636 -0.10165343 -0.23547141 -0.2489565 -0.35477838 0.12824044 -0.074436456 -0.3391179 0.1881582 0.38297212 0.2648033 0.38199258 0.28270912 0.39294696 0.37271732 -0.17289758 0.37065572 0.3189018 0.17828271 0.17471911 0.32233542 0.24633417 0.19697511 0.2978136 0.36945626 0.34334344 0.16307619 0.14275835 0.22695065 0.31220376 0.3539257 0.053713094 0.09902084 0.32565004 0.23796847 0.19794449 0.17308794 0.1452947 0.4475625 0.45290664 0.40185732 0.1370078 0.14118661 0.091486536 0.08363094 0.40465355 0.4341321 0.4446714 0.27860105 0.44566643 0.48883677 0.53363585 0.48492977 0.51788116 0.3762664 0.37871277 0.43148458 0.4975475 0.7305933 0.7838248 0.5231934 0.5422755 0.88428843 0.6117651 0.65910983 0.89441013 0.8629721 0.62423325 0.6986072 0.834465 0.9069953 0.9082403 0.7413163 0.8566512 0.89658594 0.90677404 0.555537 0.56777346 0.56173897 0.5687988 0.58391714 0.5875503 0.5750132 0.6114626 0.66658014 0.5120256 0.4802945 0.24780585 0.19998586 0.094627336 0.02329974 0.62393296 0.30023897 0.27266908 0.2150087 0.5789156 0.09683598 0.22457495 0.10802073 0.08566498 0.4935975 0.08026416 0.055512704 0.054026127 0.41726094 -0.055345006 -0.011584327 0.0017937496 0.08266607 0.06136903 0.18155639 0.18357342 -0.04784368 0.066971585 0.2991988 0.19136168 -0.07350397 -0.12720191 0.31664723 0.3127266 0.17163607 0.48103127 0.69145167 0.75992495 0.31945673 0.784758 0.7925713 0.24553871 0.26496223 -0.24664778 0.7727878 0.20299594 0.23272452 -0.32480937 -0.36818036 0.5787058 0.679935 0.19597824 -0.30247992 -0.27319703 -0.022426046 0.20650074 0.4029627 0.011897923 0.21339151 0.13823003 0.48462087 0.38498163 0.3394094 0.19364226 0.47205156 0.42076343 0.10232887 0.4398231 -0.25439918 0.41216433 0.37304017 -0.011981986 0.30836943 0.096955046 0.03796053 0.04468535 0.12857078 0.056991074 -0.102318004 0.20192158 0.17872329 0.19238994 0.15779048 0.4809194 0.48965356 0.11370219 0.3298466 0.40835017 0.40977547 0.31167713 0.21073754 0.5288075 0.3987078 0.41263968 0.8391521 0.65702945 0.85492253 0.91202676 0.9178225 0.8723024 0.9155508 0.92043114 0.73786485 0.8325979 0.90406215 0.9191485 0.59880096 0.61745477 0.5642905 0.48359767 0.62821573 -0.0046491623 0.52999353 0.07378563 0.23099443 0.24590942 0.2236062 0.5223852 0.150832 0.20119366 0.14764099 0.09218337 0.5039493 0.10667795 0.086037226 0.104853354 0.119466394 0.08856013 0.4501531 0.048819307 0.002059035 0.39455634 0.025813071 0.092873394 0.17576835 0.10785849 -0.0155952275 0.06684773 0.20795096 0.12512244 0.29767954 0.642665 0.31219158 0.7617201 0.31858015 0.7808696 0.7917992 0.27417278 0.76171845 0.7870132 0.5588974 0.65240914 0.30182412 0.5074755 0.24358067 0.090424 0.040689155 0.5060511 0.43148252 0.16779806 0.11809548 0.5879904 0.54177475 0.011058275 0.5609579 0.51484877 0.33042356 0.13020308 0.12501734 0.1584