# vtk DataFile Version 2.0
Really cool data
ASCII
DATASET POLYDATA
POINTS 5802 float
0.40163732 9.041485 22.509315
0.306269 9.710933 21.943554
0.18410638 9.703753 22.530931
0.19831696 9.892749 23.118702
0.2704823 10.386546 21.815462
-0.066773415 10.6619425 22.678377
-0.0025047958 10.678973 23.300583
0.2817962 10.572126 23.747305
0.25340962 11.439075 22.014215
-0.050884187 11.392882 22.789583
-0.0043738782 11.391136 23.349049
0.21683432 11.467064 23.769884
0.23144725 11.985041 22.74951
0.18858454 11.875576 23.320456
1.0187937 8.208608 22.49904
1.0765283 8.764466 21.323952
0.7690767 8.710655 21.814081
0.6277283 8.614843 22.511375
0.86137235 8.809291 23.23361
1.1695013 8.955921 23.586481
0.76695657 9.5357895 21.232891
0.68122375 9.452072 21.461653
0.6597809 9.349147 23.374466
0.8933586 9.492514 23.686493
1.0048263 10.293112 20.975134
0.5254973 10.510207 21.497993
0.56870246 10.767253 23.975676
0.85708237 11.356593 21.351576
0.39304456 11.420772 21.838024
0.606426 11.40521 24.011833
0.75548756 12.148959 21.992441
0.6605863 12.360281 22.639383
0.6585892 12.251202 23.34557
0.73820335 12.002883 23.774109
1.0792727 12.640961 22.650848
1.1163509 12.626361 23.088682
2.2832923 -7.9384704 22.893503
2.1840353 -8.012382 23.457504
2.161431 -7.90738 24.415436
2.2355468 -7.0875225 22.225697
2.1139066 -7.2763243 22.682774
1.9288104 -7.4577174 23.537502
1.833719 -7.267084 24.580446
2.0149689 -7.2638397 25.285715
2.2272358 -7.1536474 25.654972
2.2519386 -6.641014 22.176853
2.076909 -6.558115 22.466717
1.8356287 -6.397568 23.499357
1.7516942 -6.619401 24.619305
1.9473274 -6.572564 25.315428
2.210405 -6.630741 25.693453
2.2771473 -6.063216 22.283865
2.0472283 -6.042196 22.731016
2.13936 -5.697398 23.313852
1.9272184 -6.019337 24.445969
1.92167 -6.2134566 25.122744
2.4034371 2.8264687 31.702345
2.4244864 2.9253228 32.573574
2.401745 3.5372884 31.697758
2.2606444 3.5633397 32.264973
2.3961291 4.706419 31.891596
2.344756 4.5778675 32.29106
2.444071 4.2222476 33.179264
2.3085797 5.3007555 32.69691
2.2256632 6.77105 32.01433
1.9476972 6.571322 32.403667
1.8291746 6.8138514 33.33229
2.078726 6.743798 34.420845
2.3536441 6.287755 34.933098
2.405705 7.1095195 35.99504
1.6671659 8.063466 21.864134
1.417613 8.054597 22.37297
1.9927915 7.0825744 32.162617
1.867542 7.5650787 32.648853
1.8618795 7.1793327 33.728138
2.04176 7.166683 34.267788
2.1077802 7.5919237 35.47515
2.3125944 7.4571157 36.010433
1.7306248 8.771002 20.927061
1.2689596 8.64562 23.360668
1.7264603 8.908572 23.686169
2.286529 8.081259 31.967236
1.9470751 8.158724 32.698593
1.935038 8.166664 33.302155
2.1241043 8.631426 34.04002
2.2363033 8.387868 35.52199
2.380574 8.113499 36.049923
2.1387067 9.767679 20.080227
1.3645469 9.2692795 20.848633
1.4319495 9.732171 24.0175
2.3263779 8.874228 32.834625
2.2438622 8.779701 33.523937
2.2850204 8.898545 34.892838
2.3420358 8.885444 35.21489
2.0184085 10.339634 20.16507
1.6511133 10.670818 20.564785
1.4209671 10.848799 24.165995
2.175548 10.979223 20.255882
1.8232769 11.469718 20.749683
1.4500364 11.566901 24.106432
1.514196 11.965922 21.268005
1.4585347 12.441364 21.763205
1.4111884 12.452909 23.511217
1.3305107 12.1158905 23.83162
1.5391493 12.66054 21.997686
1.4307663 12.750924 22.547485
1.5316131 12.712394 23.067188
3.1667273 -8.814046 22.917295
3.032121 -8.751286 23.146633
2.9484956 -7.99833 22.220812
2.5825734 -8.323238 22.887774
2.5355656 -8.412439 23.293316
2.5759566 -8.278982 24.284462
2.6251917 -7.845719 25.20493
2.68574 -7.6881914 25.69189
2.703073 -7.3366194 22.002726
2.683007 -7.1215115 25.94467
2.685271 -6.522271 21.9285
2.638975 -6.5885377 25.941545
2.8190084 -5.6851473 21.969795
2.4749732 -5.5521317 22.350359
2.711383 -5.6355495 25.415255
2.8637922 -6.1169887 25.903429
3.160343 -4.293105 22.382423
2.797925 -5.3270483 25.056227
3.3529422 -4.078882 22.126905
3.3968863 -3.9182124 22.274656
3.3224592 -4.1391473 23.237215
3.03574 1.2278736 31.89665
3.1204014 1.2323903 32.29374
2.9465766 1.7599285 30.957775
2.7438912 1.7312144 31.533848
2.8080664 1.6717733 32.291492
3.2035718 2.5859568 29.827747
2.64674 2.576373 30.86265
2.5433893 2.4386 31.486443
2.5729651 2.5877244 32.596027
2.7961454 2.5255916 33.13898
3.2840137 2.6746292 33.870342
3.179893 3.3569567 29.633358
2.7437985 3.3128517 30.622644
2.502376 3.744355 31.453453
2.6283438 3.4825647 33.41675
3.2477565 4.114185 29.749659
3.1560543 4.5460515 30.449518
2.7256885 4.8226476 33.612423
2.9531522 4.540648 34.149517
2.5091374 5.0344744 32.54563
2.679502 5.6790724 34.392803
3.072865 6.0520344 35.647377
3.143335 5.9974017 35.74018
3.1260977 6.5125794 30.89302
2.6189134 6.7305965 31.562437
2.5160506 6.434035 35.364853
2.7178144 6.759622 36.162548
2.6559334 8.0080185 21.646095
2.9057035 7.145389 31.24587
2.5790143 7.5897675 36.333237
2.996637 7.5018463 36.646698
2.4821262 9.185628 20.145044
2.3987377 8.634606 20.670267
2.6008656 8.393929 23.218546
2.483378 8.3988285 31.918955
2.696211 8.374475 36.290096
3.1940515 8.218693 36.694584
2.536949 9.674992 19.852215
2.5184755 8.784576 32.236526
2.7709148 9.2183275 32.768257
2.6497347 9.220833 33.4131
2.741537 9.363581 34.688053
2.730696 9.281409 35.46611
2.927751 9.073108 36.07836
2.815124 10.383834 19.779736
3.0500503 9.615305 34.86091
3.1233625 9.593556 35.410267
2.6191535 11.108771 20.16797
2.4312668 11.488426 20.50446
2.0803497 11.545346 23.94683
2.4635866 12.054061 20.99787
2.3463223 12.3749 21.495615
2.336536 12.394229 23.301588
2.1489756 12.100486 23.698872
2.3570673 12.596111 21.934383
2.1566195 12.746953 22.530437
1.9743515 12.652555 23.216917
3.2290106 -8.726038 22.866547
3.2037435 -8.903088 23.844988
3.6029568 -8.878841 24.059711
3.9487371 -8.2229395 21.976696
3.4514356 -8.5332575 22.449986
3.1460793 -8.234288 24.961763
3.236388 -7.368488 21.770721
3.7076836 -7.462751 26.096272
3.8082142 -6.4955974 21.296717
3.3427653 -6.5989285 21.522902
3.792856 -6.6808686 26.234806
4.049269 -5.7320414 21.353039
4.302835 -6.006834 26.832823
3.3827 -4.596092 21.858152
3.9765875 -4.970805 25.233305
4.0921063 -3.651505 21.714357
3.511038 -3.7798011 22.490831
3.5971467 -3.774816 23.330584
4.003436 -3.7909489 24.23114
4.0382395 -3.1896179 23.180908
4.432481 -0.27471983 32.615913
4.3952374 -0.6538076 37.058426
4.3709154 -0.47394246 37.492607
4.43621 -0.36929572 37.93171
3.5044954 1.1563063 30.750547
3.338451 0.9333836 31.538536
3.6714456 0.73508924 32.17212
4.3868217 0.037740648 37.36793
3.8624508 2.2339904 29.337675
3.5717964 2.1043134 29.651472
3.4653306 1.6059227 30.344221
3.458761 1.7321843 33.287113
3.5502365 2.2463236 33.703064
3.8861005 2.4461222 29.186243
3.9190915 2.4750197 34.124344
3.5125675 3.3274834 29.2137
3.5713754 3.50953 34.54492
3.8956482 4.7909718 28.888567
3.5378647 4.6380763 29.31645
3.4759667 4.3989687 34.89001
3.9050183 5.452897 29.019466
3.6489592 5.529352 29.546543
3.432931 5.5065374 35.46612
3.8606317 5.72052 36.1113
3.5245976 6.1519804 30.613085
3.597658 7.8657002 20.964737
3.5444865 7.583536 22.470097
3.7379785 8.138452 23.534664
4.2632694 6.8613973 29.69926
3.428054 7.5069346 36.842983
3.7381873 8.36075 20.385405
3.7355034 8.364474 31.173286
3.5588036 8.58033 31.589222
3.6349142 8.326118 36.792976
3.2962327 9.429052 19.671804
3.6038103 9.5036545 24.149347
3.534406 8.825672 31.67125
3.915766 9.396597 32.98249
3.312523 9.531477 35.72891
3.4928908 9.140236 36.259827
3.8028789 8.8565035 36.617744
3.247822 10.623713 19.79401
3.4174533 10.174869 24.14606
3.2649772 9.688718 34.73212
3.4319923 9.6927 35.323833
3.6474566 11.404516 20.206491
3.2109342 11.650148 23.540907
3.0058606 11.100614 23.602625
3.573539 12.093786 21.004324
3.0751529 12.396407 21.694103
3.3642929 12.316137 22.138786
3.1303985 12.131662 23.00689
5.1602306 -11.96677 23.728188
5.157427 -12.029932 24.416649
5.22054 -11.883002 24.799204
5.2036786 -11.502093 23.219162
4.9186945 -11.455469 23.647446
4.912577 -11.618336 24.628344
5.08145 -11.431133 24.98125
4.667601 -10.822607 24.015423
4.593842 -8.656748 22.292328
4.8847804 -9.541139 24.992592
5.2438135 -8.949748 26.095444
4.9354553 -7.939048 26.301529
4.8963075 -7.42977 21.17561
4.8111835 -7.0215626 27.301712
5.27675 -7.249079 27.99519
4.6174736 -6.724173 21.07117
4.619705 -6.4395146 27.456804
4.5357037 -5.4996057 27.358208
5.3683357 -5.722882 28.660105
4.5046973 -4.4282336 21.223999
4.6485476 -4.424898 25.768045
4.689813 -5.0887604 27.391832
4.876858 -5.106175 27.751167
4.8721657 -3.6660812 25.3844
5.069203 -3.6245267 26.26045
4.95306 -1.8210564 18.431288
5.1469088 -2.0516536 19.273544
5.308082 -2.3780177 20.42951
5.1139565 -2.6593516 21.4162
4.788067 -2.2597942 22.427292
4.945342 -2.855042 25.662401
5.278748 -2.903158 26.44233
5.1793213 -1.8626817 32.719093
5.179825 -1.783957 37.61293
5.327854 -1.4198843 16.804018
5.069028 -1.5654333 17.563925
4.853507 -1.4379569 18.750526
4.814931 -1.374067 19.443459
4.8189597 -1.1140206 20.02491
5.0019846 -1.3866632 21.160902
4.9798822 -1.7924798 22.57453
4.8909383 -1.9453464 23.269136
5.2663994 -1.8732352 24.531582
5.1947083 -1.9374797 25.649607
5.329694 -1.8899208 26.405537
5.1149616 -1.2941628 31.679108
4.8355184 -1.3004011 32.77066
4.9369216 -1.3858321 33.14502
5.149527 -1.0238602 33.846275
4.7722588 -1.1824856 36.990364
4.5974917 -1.0810822 37.572968
4.892609 -1.185644 38.28685
5.2435536 -1.2802445 38.747673
5.259585 -0.579679 16.845428
5.0509143 -0.5167693 17.44365
4.784291 -0.41687238 19.466166
5.234991 -0.82712096 21.205313
5.3555293 -1.169347 22.748945
5.132245 -0.22503175 30.76123
4.516107 0.031789392 31.69755
4.736608 -0.29130054 32.155224
5.334528 -0.20954813 35.96077
4.5050364 -0.5298645 36.810783
4.6239505 -0.4914945 38.27058
5.030711 -0.4579794 38.78808
5.331794 0.023597434 16.903028
5.236343 0.18968931 17.462378
4.999293 0.02803427 18.489393
4.977527 0.034028634 19.09559
5.305858 0.055641413 20.253735
4.7523446 1.2318577 29.598534
4.2833447 0.7835258 30.713522
4.4938183 0.5223386 33.188572
5.200528 0.29317087 34.53039
5.3231344 0.20873928 35.045326
4.553051 0.15787101 36.78451
4.5859594 0.44120374 37.526634
4.6752076 0.23888524 38.227505
[...]
POINT_DATA 5802
SCALARS features_00 float 1
LOOKUP_TABLE default
0.80050874 0.7810793 0.824821 0.83948076 0.79410434 0.9141695 0.93028295 0.9039216 0.89030015 0.9607433 0.9704485 0.95894873 0.93370795 0.9505825 0.77012277 0.6800715 0.7526132 0.7897694 0.7393611 0.69125366 0.67184657 0.7079172 0.7667626 0.7440179 0.6291811 0.7312118 0.91096056 0.7334934 0.8549676 0.9331651 0.85220516 0.88878596 0.905633 0.90587807 0.85110986 0.8599574 0.6354223 0.6524514 0.7049406 0.61565775 0.6423137 0.7143078 0.76479447 0.69175833 0.63835776 0.5867882 0.59293705 0.7022259 0.7702732 0.6832751 0.62315637 0.5254278 0.5383111 0.53628707 0.74323106 0.6899917 0.44376004 0.43024147 0.38737014 0.3872646 0.29212847 0.32604238 0.34238675 0.30256933 0.38415706 0.37578607 0.442432 0.44071585 0.3952698 0.5947089 0.6816605 0.7434025 0.4509777 0.53377414 0.5207218 0.52822566 0.63122034 0.6440333 0.57975274 0.6836372 0.60804 0.5099491 0.56043214 0.57940304 0.5938732 0.7013594 0.71776307 0.5154571 0.5990379 0.6798374 0.5479195 0.567968 0.6420728 0.67207134 0.5311123 0.57690376 0.8391509 0.5370269 0.60892904 0.83315456 0.69995344 0.7663696 0.8383515 0.8445999 0.7771774 0.8179984 0.826271 0.56478816 0.5762516 0.5944772 0.61235404 0.6117647 0.6360496 0.6343924 0.58404744 0.6002711 0.55604994 0.55379033 0.545124 0.4862966 0.4656608 0.4979481 0.483651 0.39079288 0.45240158 0.36692536 0.3486912 0.3383234 0.41479415 0.39326605 0.46805483 0.46920222 0.4490415 0.4474341 0.4679252 0.46716642 0.44988528 0.42351666 0.3115308 0.41419685 0.42461014 0.36588794 0.36975944 0.34248394 0.28100786 0.2957057 0.26097748 0.307563 0.27700478 0.38930064 0.38417667 0.20131044 0.33347887 0.44978413 0.5525737 0.47974527 0.34477144 0.68024224 0.6772365 0.47663563 0.48636 0.562837 0.5034361 0.7402655 0.7405871 0.47463614 0.519057 0.5040661 0.52734876 0.60724914 0.68550605 0.7352357 0.46516642 0.6161221 0.67212486 0.5032614 0.5446582 0.73131263 0.5868397 0.64725345 0.7537663 0.7544075 0.693188 0.75608027 0.7886182 0.56634355 0.52984136 0.47509056 0.5007137 0.5550469 0.5534843 0.5639621 0.32844096 0.46633142 0.5168084 0.3027575 0.43040216 0.16328752 0.40599674 0.10572008 0.30669004 0.32452 0.29800212 0.17852823 0.24465308 0.21570495 0.52292323 0.5592308 0.5738985 0.38820967 0.3742834 0.30724287 0.5077733 0.3865449 0.4095851 0.41500193 0.34321016 0.3018542 0.3855988 0.19283225 0.3908352 0.2049127 0.26876494 0.2787874 0.17443547 0.21510604 0.18475914 0.259565 0.35183945 0.13850267 0.22776231 0.31038982 0.25669187 0.11220537 0.68118083 0.24891214 0.22559136 0.32207423 0.74073887 0.40372336 0.38724768 0.33257636 0.3781674 0.6957153 0.74145746 0.7449151 0.44951305 0.4242395 0.59724665 0.65683573 0.43193084 0.59850264 0.57655156 0.44699284 0.5701157 0.5536054 0.65412086 0.79588056 0.78949344 0.76048905 0.738979 0.7409824 0.7344749 0.6727567 0.6442665 0.36656824 0.22274423 0.06538133 0.053308263 0.37250316 0.12093028 0.13588011 0.37258023 0.15150502 0.15022956 0.15345052 0.32388335 0.013247259 0.11944438 0.13118221 0.09367843 0.07631637 0.5252817 0.39243838 0.31311586 0.20331089 0.15352064 0.17070971 0.1519611 0.26240924 0.73139524 0.6009895 0.60606104 0.5179083 0.4516945 0.43125516 0.2828895 0.12179825 0.096499816 0.14217639 0.21028274 0.20840058 0.18686959 0.22747661 0.23496318 0.26232892 0.55435294 0.6148025 0.6661987 0.6928469 0.55432576 0.56442904 0.48324624 0.2734533 0.100230545 0.17054081 0.23403265 0.22725126 0.23710653 0.47725195 0.5940503 0.5969825 0.51769364 0.5054778 0.5245543 0.4843275 0.3656448 0.28426468 0.29732046 0.17054409 0.0365694 0.012473896 0.4296447 0.4754897 0.5154456 0.51408356 0.33122325 0.31905323 -0.01529552 0.30976146 0.34292427 0.36138737 0.3380698 -0.029502679 0.52127993 0.36426044 0.42427757 0.5149315 0.53478 0.53449035 0.29002786 0.28244823 0.1109125 0.3469417 0.5134658 0.5251351 0.4831934 0.21237682 0.34417838 0.1391198 0.25626314 0.33204013 0.3207685 0.2780025 0.13695171 0.13996358 0.60197616 0.26126122 0.14627385 0.09791717 0.3313473 0.30718982 0.24273619 0.08113848 0.103243575 0.03635669 0.6926075 0.2660962 0.22143435 -0.005596079 0.055008598 0.67311734 0.34720397 0.15120298 0.10379733 0.16788647 0.62529963 0.6686939 0.31064898 0.26246163 0.2087754 0.21113148 0.44420028 0.5796907 0.6366482 0.2581294 0.28860015 0.33750075 0.28192455 0.7855357 0.8278483 0.80534315 0.74338263 0.7145134 0.6551759 0.45028955 0.5086834 0.3996194 0.34749717 0.34454706 0.084907904 0.16584545 0.36087048 0.3593967 0.13133544 0.28556442 0.16308914 0.17647952 0.4563861 0.56028676 0.27480683 0.45745885 0.5512072 0.11184648 0.061924085 0.11191335 0.42742568 0.51386344 0.5488712 0.51732934 0.22469276 -0.049630728 -0.16102883 -0.010660037 0.61376435 0.58645624 0.308705 -0.115330376 0.02818045 0.12686782 0.27731365 0.28045142 0.84388936 0.82773733 0.78642154 0.57754934 0.60061586 0.08476251 0.20687132 0.20103297 0.13441636 -0.0852891 0.7302791 0.7275305 0.5473604 0.549893 0.18568563 0.11811842 0.078707986 0.14949778 0.20296648 -0.10459475 0.2231731 0.6328508 0.53587043 0.420577 0.31768844 0.21888664 0.1766802 0.4251588 0.56543785 0.5079377 0.40842772 0.35733232 0.077062055 -0.16218781 0.28919613 0.3402353 0.5282189 0.29242468 0.2979036 0.24697468 0.2512544 0.4833104 0.49190933 0.39887634 0.32526508 0.5015302 0.44587398 0.19019146 0.15525064 0.07745103 0.19342968 0.10275397 0.62885153 0.3210647 0.08095795 0.57150364 0.64820385 0.70672554 0.7682495 0.40855956 0.05361916 0.12615147 -0.14164048 0.7140424 0.7706435 0.3990185 -0.11104749 -0.06844365 0.010145426 0.0064045116 0.5701317 0.585376 0.35160685 -0.0046588182 0.34329796 0.45392007 0.32921246 0.28550237 0.1522423 0.18942131 0.21565133 0.2470227 0.23022208 0.1651714 0.19814862 0.22486907 0.25430688 0.28696933 0.30163383 0.14759573 0.18184872 0.18657535 0.25219506 0.72915566 0.8630705 0.8159308 0.7194533 0.5652609 0.6330416 0.5443572 0.4863253 0.42927086 0.3738321 0.22139592 0.19755115 0.4201588 0.20202644 0.40470234 0.20913601 0.5729477 0.19653755 0.5350546 0.59669065 0.09939803 0.58073026 0.5877434 0.08474088 0.5641968 0.56716865 0.54668057 0.529402 0.33863044 0.40508917 0.60733044 0.59416413 0.81880116 0.89056873 0.8752532 0.80960685 0.5872841 0.43846816 0.7413122 0.6510932 0.50001067 0.50784385 0.084270574 0.029786754 0.06825686 0.025568547 0.5994774 0.5413807 0.5070431 0.18884484 -0.14313467 0.38176176 0.56313705 0.6113763 0.26167795 0.22029212 0.30413657 0.75301075 0.6414329 0.49619284 0.4137859 0.32062823 0.28166226 0.5919619 0.5168932 0.35232577 0.32439113 0.32607564 0.16556098 0.2416244 0.29717055 0.35202962 0.236045 0.0937161 -0.059011877 0.12232767 0.42463613 0.4143094 0.43502808 0.29044876 0.22408557 0.113327116 0.12693474 0.17445783 0.47440177 0.50982505 0.6019854 0.63634384 0.42031813 0.08159934 0.5354172 0.61095405 0.6373396 0.7730663 0.43732625 0.158659 0.6396469 0.6806841 0.7563523 0.83215886 0.8663043 0.3764126 0.18814024 0.694149 0.7570188 0.80178875 0.88322705 0.8940918 0.3577296 -0.040210623 -0.24166967 -0.00574309 0.8152814 0.8478739 0.34462568 0.32542908 0.07836637 0.15874432 0.19374779 0.29155758 0.21352638 0.14996079 0.1724071 0.20282233 0.2556875 0.29375938 0.33827388 0.3012026 0.13068123 0.121730566 0.1711399 0.20239234 0.23399287 0.673388 0.75406325 0.72653115 0.66913646 0.5984704 0.63398933 0.62799394 0.5348731 0.37396213 0.4884603 0.4591305 0.4656696 0.45588145 0.33734223 0.4220389 0.4768039 0.46492878 0.5488868 0.39729095 0.49501806 0.5719332 0.07755779 0.5898851 0.06887113 0.56688946 0.49051517 0.42777747 0.5707307 0.5495235 0.30682966 0.70766175 0.76259696 0.790286 0.7848144 0.53590566 0.55603385 0.17921695 0.559178 0.6513269 0.6978107 0.51319754 -0.136911 -0.24293132 0.5363898 0.5418587 -0.2953925 -0.2772691 -0.15377171 0.37360972 0.5728177 0.19559667 0.15810302 -0.14049768 0.26346046 0.6849106 0.3743832 0.19410208 0.28937376 0.6044111 0.45528403 0.26211965 0.27116907 0.22880577 -0.046910882 0.34360272 0.36039743 0.101828374 0.07511156 -0.015945494 0.36209607 0.08208057 0.59065974 0.35417855 -0.06452924 0.06479501 0.06970846 0.7652255 0.43390808 -0.08574675 0.6583202 0.8678349 0.011038374 0.7260549 0.77291 0.88094187 0.8770628 0.30267432 0.3496838 -0.014704037 0.828056 0.87129337 0.88021195 0.30109924 0.32342926 -0.024755193 0.08711663 0.20427795 0.30073693 0.30431584 0.20118439 0.17695358 0.19601637 0.10193108 0.14097859 0.32077438 0.28562844 0.1310346 0.11151631 0.11685226 0.16359709 0.20346594 0.246983 0.6721772 0.6966691 0.69621706 0.65842503 0.59525096 0.64839196 0.6787277 0.63379127 0.5262667 0.525084 0.53181124 0.56029755 0.516186 0.5172732 0.5052469 0.47533754 0.4960572 0.47518253 0.43845448 0.37537688 0.34882045 0.45341253 -0.07850281 0.03843244 0.4923696 0.057488248 0.46353367 0.4331245 0.32474887 0.24417526 0.30228484 0.5054645 0.47896475 0.7096477 0.6699377 0.50821185 0.51612145 0.010361243 0.500049 0.5470683 0.5270761 0.49618745 0.031601164 0.43398476 0.36904752 0.49333733 -0.3040148 -0.35749382 0.29258704 0.2993712 0.60382897 -0.14401937 0.28300703 0.2166483 0.7842966 0.15949929 0.122487396 -0.055367447 0.23002476 0.26179513 0.80183005 0.75869036 0.5976621 0.32995325 0.18619101 0.0059149526 0.08800757 0.30185336 0.05417922 0.29287094 0.8164989 0.08064055 0.43416 0.8161425 0.7282092 0.252454 0.019824915 0.62003183 0.7990314 -0.01565025 0.6851089 0.8173538 -0.07919995 0.8134743 0.8078928 0.21528822 0.2519356 0.8503398 0.8619487 0.8374095 0.2754779 0.24881531 0.39257085 0.26840785 0.2703852 -0.10702819 0.0847225 0.088659644 -0.0032178313 0.012102395 0.1178057 0.38345343 0.13357216 0.08824994 0.026864827 0.04919278 0.14143926 0.13373359 0.1314651 0.11930464 0.0740276 0.01517234 0.099856615 0.15179391 0.13321923 0.37444085 0.18874611 0.63453996 0.6273762 0.64304584 0.55745757 0.5591656 0.5933883 0.42414215 0.51543784 0.5292215 0.5625538 0.55463606 0.4778562 0.40916127 0.25625896 0.4979245 0.4620203 0.38966668 0.375925 0.3269257 0.2578954 0.2750351 0.24485296 0.20931977 0.3084932 -0.054530352 -0.011600271 0.31234002 -0.07523457 0.27830213 0.07909868 -0.010105943 0.43850118 0.37902564 -0.116418205 0.4532466 -0.072200045 0.37156644 0.45998806 0.40075636 0.25890645 0.34241298 0.35721347 0.42553592 0.080599755 0.20490581 0.27754828 0.26426643 0.53623855 0.5782668 0.10415052 0.25014827 0.23508503 0.13048798 0.3011754 0.3351898 0.7262778 0.5029794 -0.30236673 -0.014866551 0.27576533 -0.23407465 -0.03740883 -0.08411383 -0.2567442 0.24496642 0.74161315 0.80522627 0.18733536 -0.42304304 -0.15804984 -0.30195114 -0.08856958 0.70179176 0.7553148 0.5689399 -0.26698145 0.22792439 0.7522302 0.73438466 0.72845113 0.33612937 0.4787382 0.72146523 0.68479 0.61406964 0.40494564 0.80387014 0.6685121 0.22867987 0.25864655 0.82466936 0.21156248 0.23074853 0.38131475 0.3134673 0.25638074 0.37427866 0.35464197 0.26446828 0.20418441 0.045143977 0.046677858 0.0112856105 0.1741727 0.22640508 0.35731354 0.37613255 0.3702389 0.35988507 0.19701982 0.2281967 0.2680047 0.22085181 0.20388955 0.0729994 0.07000738 0.053373687 -0.032984737 0.32152635 0.38526565 0.38219073 0.3729592 0.28789756 0.26036572 0.3932477 0.39206314 0.38213488 0.56179035 0.53665584 0.5771146 0.5843705 0.5596092 0.28250018 0.1702518 0.10366008 0.42358753 0.52901566 0.4871157 0.21689522 0.09510046 0.4042723 0.23139216 0.14341293 0.22441085 0.13063845 0.06209252 0.20576006 -0.41254818 -0.14649901 0.08634348 -0.02507963 -0.038856268 -0.062029056 -0.03314482 0.21343578 0.16115285 0.04221409 0.2121868 0.1386358 0.3146847 0.20430563 -0.026088804 0.22272852 0.25393754 -0.078652605 -0.08741471 -0.264541 0.19942544 0.19737594 0.2427807 0.26732686 0.35284585 0.3569051 -0.08712962 -0.17670846 -0.16391711 -0.17737477 0.091392726 0.079232216 0.3382492 -0.06433456 -0.065082446 0.007296782 0.00026976317 0.065863244 0.03712845 0.26463324 0.31535545 0.6141213 0.63222116 0.58734924 0.54036015 0.018695079 0.0615575 0.25388703 0.6419383 0.6558972 0.023166224 0.27604163 0.2692142 0.18710265 0.67446285 0.69156367 -0.2729213 -0.19777316 -0.16857311 0.011896968 0.20461205 0.66607296 0.6771675 0.0036244467 0.39578256 0.61966264 0.4555856 0.044408374 0.015876547 0.15198156 0.124162495 0.13373251 0.30038083 0.2056899 0.2754864 0.270123 0.2633912 -0.13696517 0.3163727 0.2723977 0.25431037 0.23283023 0.09372765 0.012575406 0.16115701 0.001991108 0.19872716 0.27241525 0.31683433 0.38708782 0.3125082 0.31473577 0.35386857 0.27641454 0.28795254 0.28294897 0.21410663 0.05489379 0.23593575 0.3238294 0.42795563 0.37514207 0.40676975 0.3995809 0.38823923 0.38743544 0.47870964 0.55538774 0.57461655 0.55631006 0.34895286 0.42945698 0.53696966 0.48427433 0.017939255 0.4251994 -0.026634037 -0.035877608 0.03731476 0.11762423 0.17726694 0.2769931 0.20923492 0.0722764 -0.10086826 -0.04772466 -0.07621178 -0.07091223 -0.06378934 -0.013411567 -0.17770816 -0.016227126 0.026933923 -0.03756027 0.22283304 0.0069910735 -0.0009654276 -0.24846482 0.26641783 0.3051503 0.33858073 0.02525677 -0.11977973 -0.22851339 0.09382026 0.18234208 0.20039517 0.35991833 -0.12762778 0.001925122 0.052521814 0.24278703 0.2669027 0.58397245 0.52280587 0.050571315 0.047892094 0.2619441 0.24985203 0.25753272 0.32369646 0.5827801 -0.26775742 -0.08849781 0.014719382 0.2773199 0.35826567 0.6107601 0.59121877 -0.20554969 -0.20557988 -0.28236753 0.24717993 0.19270355 0.16185524 0.14823475 0.6274959 0.59227216 0.285406 0.43855643 0.27008787 0.29233402 -0.030804511 0.075041234 0.118766695 0.08633151 0.08377773 0.33283037 0.2370807 0.2948088 0.35208178 0.3994166 0.26178193 0.26222396 -0.03795827 0.14746313 0.35812613 0.4044621 0.43973464 0.23516591 0.20635745 0.1898464 0.22803062 0.26024848 0.17352414 0.11999622 -0.12884407 0.118400715 0.28395408 0.42441577 0.38249832 0.35293907 0.38729608 0.34614626 0.40951613 0.46931937 0.4677349 0.19268307 0.22575621 0.31526253 0.38633847 0.46287608 0.4573632 0.4288312 0.42491424 0.55204767 0.6988509 0.39794332 0.45204675 0.6515896 0.6800402 0.71707034 0.57961714 0.6560155 0.70369613 0.52909124 0.5465478 0.42633817 0.4684446 0.515812 0.5220867 0.8144042 0.84407437 0.85309726 0.31066734 0.38248998 0.74134886 0.76839465 0.7868581 0.3217838 0.59167993 0.6442791 0.1257537 0.1750135 -0.052771777 0.08366347 0.3669849 0.105106995 0.25092787 -0.15832949 -0.20266235 -0.05702239 -0.19654033 -0.07360512 -0.20242193 -0.13248973 -0.10468049 -0.093303606 0.15745576 0.255933 0.65673506 0.21048698 0.27000475 0.25324485 0.2669425 -0.002229318 -0.032407835 0.21797617 0.053725164 0.3019302 0.53547794 0.6573207 0.008006291 -0.18472445 -0.09247068 0.20810324 0.09884371 0.263812 0.6471238 0.6714213 -0.23049523 0.1468312 0.59884 0.62566555 -0.048108414 -0.16603822 0.22800547 0.36199003 0.4267847 0.31793594 0.38567787 0.4623128 0.5445348 -0.22297639 0.27829677 0.3770786 0.43689603 0.5584945 -0.1816791 -0.26249108 0.073440656 0.12328768 0.38612968 0.38943103 0.39710408 0.49784726 0.07377932 0.26326224 0.13040122 0.019162007 0.07993394 0.034252066 0.051537585 0.19286361 0.031484835 0.3509776 0.15219621 0.39100546 0.22024077 0.23768443 0.06758432 -0.07250276 -0.10460647 0.3877253 0.38967612 0.2573442 0.4825213 0.6686385 0.2400963 0.22164416 0.092543945 0.1142174 0.054207727 0.02387036 0.08195018 0.4127578 0.39462894 0.3513092 0.40798402 0.6153664 0.6828775 0.7150201 0.7419807 0.31349462 0.39368147 0.4328765 0.4102657 0.2389114 0.3826202 0.59314126 0.7366767 0.73683584 0.33426538 0.41609517 0.52103895 0.7181412 0.7255126 0.7255114 0.390075 0.4804417 0.61506784 0.6870978 0.6991006 0.39746818 0.44651353 0.51737154 0.6246438 0.67172325 0.8879403 0.9138067 0.9219691 0.4082991 0.44000536 0.8152564 0.8381072 0.85820395 0.897982 0.85110134 0.3758149 0.40104902 0.4280923 0.33278432 0.7699511 0.75235707 0.6964316 0.30600694 0.29234076 0.22050111 0.4269687 0.4526778 0.52389747 0.67117727 0.57825834 0.46595 0.4633791 0.20243137 0.13745196 0.4036801 0.4796725 0.5636623 0.3826216 -0.09659078 -0.1563865 -0.000514172 0.4826024 0.4198721 0.51140976 0.5606069 0.18563235 -0.19421715 -0.062266383 0.48973402 0.486791 0.5549482 0.4971682 0.43821108 0.5041451 -0.0065344125 -0.050837427 0.22846307 0.5450932 0.5575497 0.5757189 0.4684182 0.3264724 -0.10947472 0.25178638 0.27225742 0.57541543 0.615672 0.5533972 0.44757825 -0.014330901 0.27413905 0.2824897 0.6478367 0.6841451 0.5801021 0.40972605 0.26310733 0.58957386 0.5402967 0.6591803 0.20959263 0.010562487 0.24964322 0.4419847 0.6633661 0.6896387 0.6996052 -0.019983593 -0.061098427 0.032967806 0.08360095 0.68437123 0.7041753 -0.033989456 -0.19578107 -0.20931995 -0.12425031 0.06399107 0.65063477 0.682711 -0.18448462 -0.23923343 0.5867952 0.65693086 0.37467888 -0.07035902 -0.116079226 -0.115676716 -0.19667082 0.2683164 0.5134383 0.57634264 0.42128053 -0.15618496 -0.28710583 -0.07024607 0.006770104 0.12041898 0.40335238 0.44087404 0.48833594 -0.31439143 0.046076268 0.06778877 0.1505049 0.13444729 0.10299499 0.3742799 0.39452606 0.419914 -0.00039884448 0.13674757 -0.025723316 0.122526035 -0.09263845 0.19243655 -0.08876419 0.25232357 0.033118084 0.26172817 0.29339874 0.13886088 0.0626016 0.16484092 0.3099008 0.26588047 0.186151 0.030413808 0.36318067 0.18469252 0.3151303 0.6169108 0.6854604 0.23760465 0.20508905 0.1147666 -0.0063618757 0.062102847 0.06408495 0.070260026 0.18057184 0.30163515 0.18741491 0.1976819 0.15825044 0.7322512 0.6903534 0.120847724 0.10508685 0.11746014 0.31691653 0.362068 0.3832745 0.12214795 0.09989564 0.7136375 0.13108163 0.20439467 0.23046768 0.7204594 0.7231437 0.20685402 0.22729132 0.70361024 0.7225615 0.2345002 0.24334475 0.27388316 0.3398321 0.5738598 0.6743096 0.70769286 0.3729675 0.4496143 0.5734478 0.89360946 0.9455884 0.96264714 0.564172 0.6812854 0.7111694 0.8354194 0.85924107 0.72936773 0.38830626 0.37671977 0.49997813 0.5907585 0.7657029 0.61155045 0.35389674 0.27763826 0.2666292 0.259949 0.32233858 0.43177095 0.6275429 0.5764246 0.6626781 0.1314274 0.2598407 0.36947078 0.3510877 0.33525294 -0.06144482 -0.20880015 0.3807218 0.37114334 0.4151506 0.5698254 0.20840414 -0.2950292 -0.24079196 0.08535306 0.43851537 0.40805537 0.5077114 0.029358078 0.14864485 0.22642699 0.48480722 0.2050114 0.42087987 0.4396956 0.017716454 0.27143383 0.13340516 0.227475 0.016215859 0.2782419 0.23403266 0.19366187 -0.011765044 0.21403138 0.48805764 0.51234275 0.65557516 0.6953399 0.076686054 0.41004163 -0.32535136 -0.06917642 0.705081 0.7169296 -0.11259463 -0.15885912 -0.23286688 0.12866542 0.1414378 0.111247994 0.7360418 -0.33045733 -0.052642792 0.09375471 0.09699577 0.048921287 -0.12235188 -0.29623103 0.7586782 -0.33754018 -0.29700968 -0.3961387 0.03839323 0.040838674 -0.08151644 0.71601206 -0.23877214 -0.31864586 -0.33861288 -0.13106264 -0.056032628 0.024274014 -0.009161418 0.08257641 0.66200066 0.6869036 -0.05612056 0.020231389 0.46459553 0.5300573 0.58520293 0.005243689 -0.008012846 -0.09546325 -0.026591495 -0.05273679 -0.02930215 -0.027750164 0.048096403 0.11692222 0.40525463 0.4398942 0.15267074 -0.15060203 -0.05851446 -0.10333952 -0.10093498 -0.04790008 -0.03416226 -0.14728844 -0.5037716 -0.48234245 0.0724832 0.13393293 -0.40890998 -0.38199124 0.33496726 -0.18815102 0.116363175 0.39788318 0.32519376 0.08434978 0.09530878 0.396498 0.32423806 0.21087933 0.2084253 0.15582907 0.2944518 0.3452931 0.48787057 0.59441656 0.4271394 0.36976677 0.2158339 0.1512269 0.13755247 0.004176967 0.3109464 0.27168092 0.24032387 0.16857265 0.15762767 0.65248716 0.5975417 0.12763381 0.12681755 0.13678813 0.15312356 0.041833855 0.055941254 0.22755115 0.31160545 0.07118966 0.012875631 0.65187556 0.1431512 0.110140175 0.07947757 0.10373944 0.14635906 0.6482111 0.6914668 0.19640714 0.71547735 0.755005 0.7279594 0.24839662 0.6397909 0.7099037 0.79332435 0.811641 0.7933941 0.5647007 0.8103167 0.8390094 0.82662153 0.21958017 0.19567552 0.19096503 0.15356526 0.69151163 0.75619054 0.8044251 0.7930342 0.85754323 0.855744 0.79430634 0.6085566 0.6845191 0.75243443 0.7131753 0.771023 0.80132383 0.67925227 0.7111173 0.4914138 0.51742953 0.62935275 0.6760187 0.5890096 0.24646375 0.26225254 0.32902104 0.36735237 0.410352 0.43227535 0.5158966 0.47561836 0.53651255 0.3315512 0.32448426 0.089363545 0.440147 0.3910733 -0.0