# vtk DataFile Version 2.0
Really cool data
ASCII
DATASET POLYDATA
POINTS 8008 float
-3.7356625 27.734474 15.025421
-3.9435225 27.802933 15.660144
-3.818921 27.71553 16.230175
-3.6957643 28.55772 14.606631
-4.0682178 28.468418 15.634533
-3.9554613 28.389757 16.204155
-3.7015216 28.285284 16.650047
-3.620323 29.552813 14.160412
-3.7378635 29.389671 14.481387
-3.9028296 29.308691 15.408827
-3.7460878 29.1811 16.126804
-3.5626073 29.958775 14.221727
-3.663653 30.161917 14.717733
-3.6316385 30.095005 15.192434
-2.7132108 26.243582 15.175072
-2.8864431 25.932384 15.896444
-2.7903986 25.533024 16.609446
-2.7627082 25.745764 17.105717
-3.1481218 27.024101 14.935893
-3.4417908 26.950516 15.642819
-3.4204955 26.824358 16.087961
-2.9774048 26.296036 17.082567
-2.8668237 27.920223 14.022883
-3.3813078 27.569002 14.695393
-3.503715 27.646795 16.650587
-3.0697503 27.399918 16.99684
-3.1602416 28.728586 13.923946
-3.5527902 28.57363 14.453132
-3.2472713 28.450626 16.87969
-3.18737 29.469572 13.7454405
-3.3084111 29.147026 16.60391
-3.184896 29.002892 16.790176
-3.1894875 30.309263 13.929293
-3.4078553 30.512602 14.522383
-3.3890085 30.456186 15.221675
-3.1548948 30.228825 15.804417
-2.9746873 30.798252 14.073729
-3.0854962 30.859999 14.550865
-3.070043 30.813814 15.154562
-2.0508075 25.178675 15.699879
-2.1734626 24.99125 16.546713
-2.1228807 25.046768 17.080492
-2.2521229 25.953058 15.068164
-2.5681834 25.48236 15.974282
-2.6189666 25.378 16.379
-2.3977206 25.520004 17.398315
-2.0665264 25.817533 17.7832
-2.437734 27.022406 14.362902
-1.9864354 27.504044 13.9027195
-2.5181968 27.799234 17.366169
-2.325115 26.9309 17.67776
-2.2450922 28.916428 13.331753
-2.5172217 28.334383 13.737306
-2.3972507 28.17344 17.32291
-2.3161955 29.560076 13.230745
-2.6196263 29.712671 16.471092
-2.4732556 29.247625 16.851267
-2.1658735 30.381523 13.2656145
-2.6059854 30.475002 13.550776
-2.4282384 30.251879 16.144192
-2.3407102 30.918175 13.8032055
-2.5514297 31.165941 14.683454
-2.5066283 30.99947 15.279961
-2.646245 30.69452 15.800153
-0.9105724 24.34024 16.561102
-1.0074259 24.409258 17.05113
-1.230447 24.760468 15.64727
-1.5156052 24.606558 16.422592
-1.4561133 24.813837 17.352818
-1.6215272 25.13701 17.666819
-1.202647 25.599777 14.815165
-1.1858395 25.50216 17.92769
-1.220354 26.846945 13.90952
-1.3190562 26.465519 18.040453
-1.6036571 27.474932 13.610403
-1.544167 27.720171 17.654665
-1.5788026 28.904037 13.036822
-1.5233151 28.497414 17.29952
-1.2741268 29.25188 12.8748045
-1.3475331 30.509998 13.045095
-1.2937733 30.194347 16.271805
-1.6343253 30.780127 13.161207
-1.3559107 31.218752 13.6937685
-1.7992667 31.34443 14.365993
-1.2012426 31.156923 15.214358
-0.25524083 24.223778 16.0599
-0.3069766 24.118052 16.664717
-0.2570629 24.212273 17.204346
-0.41290838 25.011759 14.952179
-0.65868926 24.61063 15.589249
-0.6090076 24.452276 17.43129
-0.06844542 24.679338 17.828575
-0.6569153 25.93005 14.324963
-0.41725004 25.522581 14.675563
-0.57747936 25.419743 18.139645
-0.19721046 27.09166 13.661878
-0.615227 28.636797 12.962962
-0.6701262 28.301596 17.562136
-0.18804097 28.203142 17.688635
-0.7291439 29.106348 12.762195
-0.8233114 29.460045 16.843609
-0.37496796 30.057867 16.037323
-0.75862396 31.078756 13.112751
-0.4850643 31.412214 13.805095
-0.6652761 31.452745 14.218038
-0.35657474 31.131477 14.9814005
0.30245203 32.829624 19.47218
0.2901374 32.96922 20.398745
0.2938077 33.531834 19.608543
0.30818748 33.521824 20.33622
0.35913667 34.06257 19.816782
0.3766204 33.968044 20.348791
0.33700952 24.103674 16.724598
0.37738675 24.204647 17.30235
0.27632272 24.84916 15.066742
0.5006522 24.499485 15.458904
0.099588595 24.451931 17.650429
0.82384515 25.090528 18.366655
0.47992855 25.851847 14.20773
1.1214924 26.71553 19.670063
1.2427037 27.097273 25.049828
1.3505507 26.786657 25.481981
1.3912711 26.834421 26.20593
1.3107314 28.17899 2.6413772
1.1122779 28.253384 3.4636698
1.2902973 28.222534 4.133168
1.3276684 28.191242 4.8999925
0.46804297 27.672293 13.310951
1.2540438 27.806551 24.758204
1.1963583 27.507233 25.523476
1.3212583 27.45827 26.05268
1.1733818 28.844296 2.0969367
0.90915906 28.885864 2.652742
0.8495407 28.734634 3.433684
0.94285595 28.808184 4.490219
0.87965655 29.141294 5.236877
1.3421048 29.10375 11.073257
0.33520675 28.322466 17.87724
1.2588954 28.146677 24.845257
1.2897907 28.246574 25.418264
1.3200712 27.991953 25.900116
1.1097434 29.453289 2.0443954
0.7980133 29.553904 2.5615177
0.67491734 29.598265 3.5225058
0.69333625 29.671347 4.5269537
0.9013493 29.565489 5.342057
1.1307726 29.591612 5.7926693
1.3485727 29.404287 10.10114
1.3287859 29.313393 10.641115
1.0364826 29.865719 2.0576274
0.9967065 30.227783 2.6954427
0.8330088 30.191607 3.6908822
0.90823746 30.347578 4.597249
1.0222814 30.293259 5.3221283
1.4605544 30.788744 9.659888
1.2923752 30.239336 10.450464
1.1981207 30.610188 2.8496935
1.2154162 30.651731 3.095425
1.1456385 30.678707 4.5299215
0.17320873 31.043358 14.78631
0.15882485 30.866583 15.19863
0.98787045 31.775686 19.02985
0.66133827 31.91806 20.243896
1.1860719 31.715977 21.30751
1.137206 32.843975 18.459608
0.61964715 32.715664 18.758942
0.5602521 32.35495 20.63606
0.64104223 32.9969 21.145819
0.60699964 33.50839 18.932983
0.4615296 33.842117 20.695889
0.81643033 33.637444 21.411943
1.1486609 33.18805 22.024311
1.3141642 35.11903 -11.18247
1.3205031 35.1227 -10.656658
0.94808954 34.076763 19.072718
0.65877855 34.335827 19.640003
0.6702073 34.396564 20.43308
0.9412221 34.306095 21.128687
1.2921766 35.786404 -12.347719
1.2139184 35.613213 -11.287133
1.2121074 35.532986 -10.576222
1.3161848 35.665485 -9.938714
0.89990884 34.72681 19.920862
0.9216931 34.69094 20.410204
1.1273767 34.636856 21.0154
1.3840833 36.08346 -12.885826
1.2434318 36.440025 -12.385783
1.1115315 36.313057 -11.638847
1.1782715 36.356617 -10.472055
1.2841495 36.27529 -9.876668
1.4617022 36.741684 -5.494013
1.3977832 37.07324 -12.5169
1.3112619 37.414978 -11.487556
1.1725783 37.01057 -10.939204
1.464045 37.109634 -5.515621
1.3124412 24.316072 15.789465
1.5214294 24.360708 16.70262
1.1375862 24.275764 17.24444
1.798005 25.306423 14.408763
1.2126218 24.465218 17.29539
1.6218687 24.81356 18.357027
1.9230782 24.709574 19.75213
2.1577382 24.672588 20.354654
1.775136 25.924692 20.419867
2.204968 25.387833 20.994791
1.9435369 26.128393 24.97786
1.8473979 26.068054 25.67807
1.954666 26.157108 26.285385
2.2533686 27.306862 3.4917758
1.5107425 26.531162 13.698291
1.4292264 26.78716 20.05307
2.064833 26.597853 24.055176
1.7859771 26.519524 24.613977
1.5516686 26.449116 25.64892
1.7022241 26.596268 26.43625
1.9857247 26.7451 26.81504
1.9051155 28.002722 1.8785394
1.6808954 27.854132 2.5362844
1.6597235 27.749243 3.4750946
1.8294965 27.688189 4.336256
1.7402565 28.013447 5.194268
2.1809368 27.743824 11.483423
1.6135108 27.721397 12.665206
1.7770723 27.36452 20.131971
1.6799011 27.309769 24.184717
1.4337726 27.269505 24.49939
1.5599695 27.386305 26.506483
2.0060716 27.394003 26.921936
2.1266031 28.364809 1.3390497
1.6641873 28.466642 1.7632376
1.8254014 28.577955 5.93615
1.9533453 28.970772 9.750083
1.4589925 28.971876 10.524449
1.5212297 28.504066 24.647333
1.5710216 28.676476 25.563776
1.8213246 28.43828 26.386427
1.9860686 28.302355 26.793858
2.2262032 29.515085 1.268982
1.710904 29.360437 1.5944624
1.6256167 29.547493 9.686251
1.4512627 29.462137 17.334558
1.7009124 30.27563 20.440443
2.3195086 29.693544 21.097683
1.860857 29.035578 24.956545
2.1654289 29.341927 25.806316
2.3512294 28.841686 26.827358
1.5563359 30.249125 2.0387444
1.2834563 30.551935 2.6391325
1.470213 30.450148 5.851268
2.365877 31.027077 8.156245
1.4801681 30.787151 9.907929
1.600457 30.639769 11.175105
1.523361 30.35543 14.450966
1.2531078 30.112753 15.335267
1.0010023 29.67504 16.129025
1.6161119 30.9733 19.09122
1.7612283 30.28865 19.66614
1.4664168 30.898516 20.38213
1.6311581 30.878675 21.209427
2.3763316 29.696953 25.37738
1.9377574 30.839848 2.5557942
1.5726013 30.893518 3.6599042
1.7643441 31.040731 4.7852964
1.6762083 30.827322 5.513484
2.093748 31.354336 8.065252
1.7723461 31.074179 9.125436
1.6211115 31.042807 9.27814
1.5856848 31.18892 10.386685
1.9441609 31.586668 11.069967
1.5522094 31.354624 18.903715
1.9027848 31.917458 22.50834
2.0722735 32.21117 8.578718
1.9996297 32.35254 9.576676
2.0335484 32.186844 9.99653
1.6623117 32.85672 18.420692
2.111005 32.6553 22.984123
2.1088216 34.454098 -10.785104
2.2369094 32.837795 9.030121
2.2768009 32.824406 9.468048
2.333821 32.694073 9.885992
1.3469802 33.12413 18.439365
1.4742328 33.527534 18.54736
1.617824 33.62173 22.552958
1.8871272 33.260582 23.02946
1.730337 35.192787 -12.335111
1.7447338 34.777454 -11.155875
1.6772549 34.73277 -10.457522
1.709215 34.915318 -9.912857
1.77378 33.893826 18.766582
1.5690137 34.564175 19.33388
1.3990504 34.508816 21.53987
1.8263395 34.2697 22.444454
2.0507786 34.114407 22.91594
1.844641 35.788986 -13.177127
1.4801358 35.567375 -12.481163
1.5956928 35.47652 -9.521452
2.0408764 35.948353 -8.265768
1.9858459 35.97288 -6.954745
1.9818164 35.760437 -6.2404575
1.7975854 35.84857 -5.457103
1.8937192 35.88834 -4.940654
2.2316043 36.158318 -4.1119447
1.4663622 34.779663 19.747746
1.48355 34.925488 20.393305
1.8330393 34.860516 21.350039
1.9449356 34.70319 22.052214
1.6643085 36.539845 -13.246729
1.825028 36.554832 -8.593726
1.9867133 36.508335 -7.744582
1.5593021 36.615517 -6.224084
1.5210389 36.435123 -5.4694448
1.6910706 36.563534 -4.7814193
2.0611315 36.564293 -4.1597323
1.9178605 37.37569 -13.325865
1.5941986 37.60051 -12.49511
1.5685673 37.751278 -11.465907
1.7025537 37.51046 -9.516383
1.6616977 37.072166 -8.951887
1.65995 37.45351 -6.2017946
1.5811402 37.446037 -5.2624516
1.730281 37.45929 -4.792575
2.0329523 37.40413 -4.195294
2.2055757 38.34628 -13.200588
1.633619 38.130085 -11.5539255
1.7279873 38.145252 -10.920641
1.9985806 38.371307 -9.86813
2.0286243 38.047623 -6.2240577
2.0504348 38.23531 -5.1431375
2.0610838 38.087955 -4.6963053
2.2094734 37.886684 -4.2858152
2.2821374 39.531055 -11.827417
[...]
POINT_DATA 8008
SCALARS features_00 float 1
LOOKUP_TABLE default
0.6993872 0.7591039 0.73778915 0.7230264 0.80049884 0.74862945 0.6892412 0.74568534 0.7616801 0.80526155 0.7517754 0.7597156 0.7749826 0.7739264 0.5396637 0.59894496 0.6376737 0.6601532 0.58271736 0.6641306 0.68102765 0.6735619 0.54577357 0.61973166 0.6981275 0.66203594 0.63925815 0.6992568 0.62921566 0.7024658 0.6625572 0.6255809 0.74914896 0.76910925 0.76260585 0.7374606 0.75678474 0.7627504 0.7549808 0.5818345 0.63563925 0.64518046 0.5037596 0.59934926 0.6278308 0.66220295 0.65810674 0.47190818 0.41684365 0.55498075 0.62845564 0.5448991 0.5219338 0.5175604 0.6480974 0.6160649 0.52757007 0.7150066 0.73567224 0.66287655 0.7424418 0.7512121 0.73884535 0.7156792 0.5843485 0.57430905 0.5778723 0.61582077 0.60289586 0.616284 0.43732795 0.5824444 0.3120615 0.6045879 0.35992646 0.4196662 0.4700656 0.37410134 0.51260704 0.6907172 0.5156781 0.7196847 0.7309101 0.7355849 0.67235374 0.554384 0.5367031 0.50618756 0.43080068 0.5517173 0.52336633 0.44202626 0.3065003 0.34880394 0.49073678 0.18931627 0.31903404 0.25475416 0.19950011 0.40038663 0.3307053 0.36097556 0.6758871 0.68191916 0.6962949 0.5404468 0.8911236 0.73020244 0.8530445 0.74024385 0.8011703 0.7350315 0.4854798 0.44423303 0.3909651 0.456156 0.44316828 0.2739928 0.19159281 0.15488704 0.68569934 0.7129326 0.73794246 0.61397386 0.5896282 0.5389552 0.5043121 0.082185626 0.64586973 0.6930475 0.70897496 0.65731716 0.69294095 0.6725485 0.6313188 0.6514884 0.28366768 0.1528864 0.62716675 0.6307647 0.66263753 0.644183 0.6843753 0.72875893 0.72280526 0.69252074 0.6619164 0.32921812 0.32492927 0.6157599 0.61998916 0.6836992 0.6971539 0.6927171 0.39032817 0.39024162 0.5793357 0.586074 0.65517867 0.43590492 0.39414856 0.71945035 0.67083144 0.45393187 0.75983226 0.8577307 0.6534958 0.6209072 0.91161215 0.6883323 0.59109914 0.5065636 0.58908105 0.5771327 0.88495183 0.81951195 0.7163909 0.6234268 0.57982117 0.58727306 0.57020766 0.5257746 0.7617669 0.7064535 0.631304 0.5686711 0.556993 0.55692804 0.511374 0.4684516 0.6181252 0.51787215 0.41945004 0.4560097 0.61172223 0.39817357 0.34526694 0.36178553 0.13741502 0.3454393 0.19746743 0.39227593 0.4465569 0.2635441 0.35037106 0.6957113 0.7315433 0.7471416 0.45723808 -0.04770656 0.12868598 0.54922104 0.657503 0.7268522 0.7478048 0.73889065 0.58114123 0.5746626 0.51049227 0.44085616 0.4333881 0.0014073495 -0.23804301 0.028610982 0.570422 0.63450694 0.719101 0.7103807 0.54337454 0.6010599 0.44729042 0.2340558 0.27251506 0.5585335 0.5662656 0.60782635 0.63282096 0.4807804 0.5689345 0.3145032 -0.11811762 0.350103 0.13855428 0.47384095 0.4440723 0.54729444 0.53628737 0.56353635 0.59281015 0.3497491 0.40362245 0.41535008 0.019368654 0.09205817 0.07550127 0.556273 0.44247797 0.45593724 0.32417303 0.34368494 0.41984278 0.53413135 0.5144437 0.5273851 0.37447265 0.37316993 0.3795545 0.42391497 0.36401966 0.6122617 0.33411878 0.4324358 0.42840052 0.4161343 0.6536379 0.33256242 0.5147071 0.40000513 0.39035907 0.3686604 0.7423089 0.748629 0.46082386 0.3918985 0.57063603 0.5724137 0.5500123 0.53530884 0.71899843 0.8222994 0.56543326 0.4783512 0.43233806 0.5600252 0.5775881 0.5035015 0.3338363 0.40612167 0.50834113 0.6205541 0.6644081 0.6594722 0.7762509 0.67993474 0.5562683 0.49934214 0.53954655 0.30334738 0.29049182 0.5329 0.62079144 0.66829103 0.67863667 0.48928475 0.45234704 0.34154797 0.2868783 0.29811907 0.5371643 0.61526567 0.63142985 0.65118265 0.3672241 0.28306597 0.22306442 0.14224808 0.514982 0.5721619 0.59236985 0.6123941 0.14723197 0.074454576 0.057765067 0.10237078 0.31184676 0.22567135 0.3238413 0.47380126 0.30177253 0.40106282 0.5060533 0.4772642 0.36674502 0.4560026 0.49493316 0.45420143 0.4447356 0.50943375 0.5055096 0.45401978 0.53503996 0.5467264 0.5280725 0.12707357 0.36884427 0.49421436 0.52608734 0.38110837 0.32018283 0.0542392 0.14804381 0.47670802 0.49044287 0.2206903 0.04240714 0.01777482 0.40242428 0.42602062 0.65894914 0.71466136 0.73150694 0.7358704 0.52485853 0.50021625 0.43558085 0.35618657 0.24910964 0.03757677 0.109075315 0.08827199 0.059646823 0.13805631 0.0029892474 0.71579 0.50205016 0.5341904 0.2661718 0.15005054 0.07755378 -0.07754577 0.67768174 0.4540118 -0.21215984 -0.15327622 0.5848435 0.58378303 0.17554253 0.3620469 0.16984354 0.1060151 0.24969304 0.42260402 0.49384433 0.2627249 0.3943533 0.31253988 -0.24018055 0.41573074 0.25336972 0.34209156 0.31496662 0.29910856 0.27645642 0.29585367 0.0015118271 0.22889528 0.029289436 -0.061621416 0.52812773 0.10186307 -0.033516586 0.19088125 0.35058168 0.33792612 0.39653844 0.19783328 0.4349414 0.1454868 0.5160345 0.44801962 0.28404796 0.34423482 0.33200133 0.09716524 0.5382762 0.53558695 0.52017254 0.38394034 0.301633 0.35287622 0.42735404 0.50463617 0.557555 0.2542416 0.60970294 0.7397303 0.3803995 0.7526936 0.47719213 0.42290658 0.5970179 0.50389516 0.58890986 0.487125 0.42099765 0.3869872 0.6190944 0.670415 0.7946868 0.8314675 0.8354388 0.43824393 0.60887146 0.5959988 0.73763764 0.83772683 0.83937186 0.8359755 0.32376152 0.64459485 0.5826614 0.71668464 0.80045235 0.81341356 0.82042176 0.3262395 0.084810786 0.5241077 0.54388565 0.57780606 0.75675255 0.7721937 0.27180985 0.18102902 0.07662269 0.06676968 0.06396322 0.4619096 0.62820464 0.11767423 0.05782044 0.13665777 0.3480093 0.41873145 0.6329271 0.11637941 0.1835206 0.44152805 0.21031447 0.26275262 0.43147874 0.20557168 0.25647467 0.34754235 0.38234082 0.33456492 0.43274027 0.4955684 0.4276235 0.4272251 0.50529486 0.56450355 0.522938 0.49436146 0.540772 0.574216 0.5657732 0.53701395 0.5512198 0.55062544 0.5108101 0.5149449 0.5055772 0.24675258 0.19884759 0.09120622 0.42680776 0.53365076 0.5494931 0.5518135 0.48679632 0.458153 0.33209363 0.06738438 0.53889394 0.35773763 0.21890995 0.26786673 0.32796413 0.3945312 0.6546544 0.6806429 0.6650827 0.48452538 0.39616117 0.3639285 0.33482692 0.17085478 0.033771828 -0.08970402 0.0033096839 0.6380234 0.6113223 0.48344997 -0.12275105 -0.028868122 0.6031287 0.41024625 0.53264743 0.39122957 0.38337207 0.216821 0.26585454 -0.4198252 -0.3622288 0.44195363 0.42716777 0.4239896 0.42192763 0.31954926 -0.3677222 -0.48703748 -0.33024406 -0.36890128 0.24742173 0.3085794 0.44221705 0.44394422 0.3780697 0.3015628 0.1897465 0.08836091 0.014563799 0.022452801 -0.14606786 0.24249545 0.10165459 0.14815928 0.441508 0.4452004 0.37953138 0.34687984 0.31364137 0.18708253 0.0011895886 0.29340258 0.06301215 0.43761832 0.44336063 0.2970461 0.32577762 0.33726162 0.3876112 0.36314163 0.35677576 0.2928313 0.18518478 0.23268285 0.047964558 -0.015846245 0.25468788 0.07366679 0.41085902 0.43311512 0.43009874 0.26935178 0.20488292 0.27351952 0.30311567 0.36415502 0.3501743 0.24639633 0.13596594 0.15523946 0.077257045 -0.028419897 0.45860562 0.45858842 0.629984 0.64101255 0.7637911 0.38682932 0.42134416 0.40081793 0.25097 0.43873936 0.47862208 0.21609978 0.3845582 0.7963191 0.81584114 0.37424383 0.3731515 0.35960925 0.086496904 0.47932053 0.45085758 0.5069462 0.3864078 0.43510553 0.54378635 0.8250533 0.33817792 0.1564478 0.5380592 0.54682696 0.5478088 0.51491344 0.6023143 0.80199754 0.8063781 0.298999 0.42567852 0.522248 0.488528 0.5882737 0.57860595 0.48344702 0.56183964 0.5637754 0.55280316 0.54861605 0.5686142 0.6241182 0.69223994 0.7608007 0.7721026 0.21737112 0.31725377 0.42993817 0.54359186 0.6082829 0.60731256 0.55620885 0.57226765 0.62060285 0.6246978 0.55168027 0.5031769 0.15503608 0.3711216 0.4047874 0.5148163 0.60050774 0.6321719 0.6040756 0.5616106 0.61219084 0.6227057 0.593495 0.5400481 0.12792213 0.11863355 0.4710808 0.5160191 0.5470932 0.56091636 0.58919734 0.5714172 0.08425377 0.244626 0.15870297 0.32844457 0.22622012 0.25715166 0.3822716 0.40968692 0.4539588 0.39599597 0.45571008 0.5555682 0.5195559 0.4107359 0.5239485 0.52617806 0.55654895 0.5656446 0.5479362 0.4812708 0.34650993 0.5441207 0.5534968 0.29448384 0.19849387 0.1402868 0.23309615 0.41602936 0.49102253 0.5153489 0.46440497 0.3928712 0.48289445 -0.01160457 0.35752428 0.32110637 0.27941433 0.23462996 0.22231042 0.23978807 0.17848766 0.087779894 -0.007151529 0.314334 0.61086273 0.6064565 0.41042903 0.3403051 0.59992915 0.5863688 0.4110117 0.55906093 0.5182631 0.3790453 0.33715495 0.4091196 0.4127624 -0.35580122 -0.31608108 -0.29850557 0.18851748 0.3640089 -0.19917662 -0.1881482 -0.1027034 0.17857957 0.16914247 0.35117584 0.3949455 0.14630914 -0.039179124 -0.15181437 0.13389972 0.36009136 0.41073215 0.39542052 0.26222986 0.088908136 0.2426855 0.24921235 0.26725003 0.098924175 0.35560971 0.2638154 0.26888657 0.23256977 0.21467428 0.021288022 -0.0078194 -0.0557615 -0.0522311 -0.072004646 -0.018778771 0.03512635 0.27776965 0.38235134 0.30063015 0.01937963 0.13772431 0.18192264 0.12275846 0.15654492 0.16775364 0.020934388 -0.04553857 -0.06960029 0.056575023 0.10662037 -0.11254884 0.13540217 0.063503005 -0.22795896 0.028379738 0.18442877 0.48871207 0.47447583 0.55548173 0.73445475 0.26468337 0.35981143 0.3212975 0.0006066859 0.060888477 0.13494112 0.13158368 0.023631847 0.15525855 0.31113428 0.25420013 0.19478053 -0.2225648 0.1483912 0.10376004 0.09684172 0.26235625 0.79243386 0.32339126 0.31647885 -0.15733744 -0.029974602 0.012076106 0.009046033 0.021396026 0.090123996 0.13237666 0.22263733 0.3967895 0.44084686 0.4797924 -0.099083975 0.11549103 0.24042067 0.8117164 0.26369575 0.24779347 -0.2692809 0.20727465 0.26272398 0.45912027 0.3570192 0.121229514 -0.12155117 0.1929361 0.33371082 0.49157077 0.5213253 0.42269987 0.8007746 0.38550884 0.3730741 0.25945786 0.4063835 0.48502073 0.5508566 0.55680746 0.5367507 0.4804227 0.5339017 0.5529456 0.5716311 0.6210803 0.65633833 0.6879312 0.29159963 0.3509076 0.47674417 0.40546107 0.5274838 0.5299512 0.5075457 0.537001 0.54296744 0.55708355 0.5606873 0.14408655 -0.02467157 0.1699526 0.32995462 0.4270038 0.5310352 0.5134512 0.4276477 0.16665894 0.14531797 0.0544046 0.14698896 0.284093 0.40558952 0.3978806 0.45211858 0.5011226 0.45522153 0.536621 0.5875617 0.5400678 0.5043093 0.1257088 0.11472904 0.1133697 0.29279333 0.4199149 0.52681035 0.5927815 0.57474446 0.12919888 0.11186087 0.1196726 0.53560686 0.1524697 0.1706332 0.1396421 0.22524175 0.26042598 0.44542658 0.34757364 0.37315652 0.39204141 0.441916 0.34314662 0.32159692 0.34124663 0.5567024 0.5299372 0.46733654 0.52902216 0.29504082 0.2137958 0.11133826 0.41753852 0.43457538 0.38964403 0.37137854 0.02406437 0.21380855 0.18836382 0.3498725 0.31548128 0.19968766 0.1719071 0.16258433 0.17341554 0.13905627 0.12998198 0.16482976 0.22010857 0.45935455 0.5480807 0.57155055 0.13935432 0.54142916 0.5448601 0.5730338 0.54597425 0.49450237 0.5142451 0.50097525 0.5776252 0.5606055 0.5183444 0.052586064 0.5284025 0.30170226 0.3499779 0.25087082 -0.30409557 -0.41039482 0.19108525 0.09861104 -0.008498416 0.23062849 -0.3156276 -0.33053684 -0.34652716 -0.073544696 0.03967552 0.20734157 0.33919787 0.2256454 0.13439406 0.2014371 0.20692405 -0.015102178 -0.20010361 -0.0955431 -0.23339891 -0.28366563 -0.35443246 -0.048549116 0.21500134 0.26755413 0.28934252 0.12395671 0.11582622 0.25511605 0.28442693 0.13506556 0.06325142 0.19928712 0.2055554 0.18578824 -0.082606375 -0.22296765 0.22618526 -0.1724176 -0.26491797 -0.28138202 -0.30377638 -0.002962619 0.06665551 0.24710825 0.31760806 0.23162004 0.15455894 0.13200158 0.26734307 0.18057238 -0.22070742 -0.03529167 0.022568427 0.04543761 -0.17383823 -0.018730463 -0.05442545 -0.14198866 0.64007854 0.29790893 0.1614444 0.16837087 0.21000692 -0.2535728 -0.2324186 -0.25380623 -0.16936901 -0.19240014 -0.09758636 -0.06611996 -0.08103101 -0.10739063 -0.20253086 -0.12208516 0.22376683 0.69949293 0.20815891 0.18122776 0.21906337 -0.024967091 -0.08525646 0.0072239414 -0.024344988 -0.05862948 -0.09318937 -0.24537785 0.41215247 -0.17928787 -0.2382249 0.78909796 0.15861323 0.10736224 0.06071306 0.13192613 0.014367588 -0.004517368 -0.03075138 -0.12216057 -0.25839418 0.052560233 0.3726861 0.016430534 0.14454278 -0.17693393 -0.2262207 0.28440592 0.07320354 -0.04239846 -0.03753741 -0.2556389 -0.25759557 0.4344753 0.02538924 0.21599174 0.24161643 0.21059886 0.19395992 0.44488382 0.51941377 0.5669116 0.63722694 -0.21315247 0.13966188 -0.01621018 0.0075035505 0.00488689 -0.09540547 0.35286584 0.4334007 0.44309157 0.39132035 0.3387764 0.35065436 0.31682926 0.5315065 0.523398 0.51061296 0.5264354 0.14788434 0.036803342 0.12093373 0.060299534 0.1900514 0.3654573 0.36355507 0.3542322 0.3604823 0.3816983 0.1495011 0.1628029 0.17351137 0.21960828 0.19757119 0.24235308 0.17756447 0.210444 0.24921292 0.28464425 0.26783645 0.28424028 0.38311327 0.4658975 0.15376781 0.16892368 0.04836689 0.14083353 0.13942209 0.18823919 0.23066314 0.20496343 0.27332404 0.32653773 0.3481568 0.26477864 0.2757106 0.5348513 0.49461854 0.15601799 0.1360229 0.12588368 0.094404556 0.22040993 0.2613955 0.30202115 0.34695035 0.4260853 0.53732955 0.50667834 0.14993042 0.14625433 0.10699109 0.15267766 0.10277462 0.19186442 0.25056118 0.3038399 0.3279761 0.3391947 0.31674498 0.30841213 0.29845187 0.6108162 0.6227493 0.6552181 0.6622255 0.5095576 0.44758308 0.40533656 0.40933615 0.2961466 0.27333856 0.25428247 -0.10235916 0.16832824 0.07940453 0.14144826 0.25273347 0.26176453 0.22878991 0.016299896 0.04052621 0.04609391 0.031405315 0.0854298 0.2535532 0.4616181 0.57280624 0.5305051 0.4794258 0.05904591 0.030766342 0.082647406 0.2824818 0.45354107 0.49898183 0.5874057 0.574228 0.53595066 0.47978306 0.41861612 0.45649853 0.5814565 0.57367575 -0.057165556 -0.15265499 -0.33558932 0.32365274 0.5561677 0.5170789 0.15309075 0.4671843 -0.11277442 0.035525404 0.26170456 0.34081635 0.47927618 0.45073965 0.37310997 0.1173469 0.14858419 0.14375225 0.1933965 0.21817207 -0.1815081 0.26160252 0.34822407 0.3804771 0.5221274 0.49001247 0.4318344 0.31794143 0.10770695 -0.016000174 0.03597189 0.16833374 0.2208097 0.20617503 0.37487024 0.3965465 0.5029899 0.45763427 0.3856874 0.2245484 0.1069633 0.105521426 0.1265589 0.25877404 0.51845676 0.45838994 0.36926824 0.46195942 0.23817758 0.42366832 0.28844908 0.22619373 0.33837998 0.19357431 0.13025506 -0.20029484 0.49925625 0.2933616 0.040617168 0.018965885 0.07741135 0.25011298 0.2911689 0.21410194 -0.021338448 0.45948005 0.50457644 0.3056946 0.23418707 0.13021964 0.0036265552 0.17226797 -0.018411206 0.06959133 0.16459845 0.32273307 0.3861293 0.36858112 0.4496833 0.5163089 0.4589172 0.3503154 0.006320934 -0.13322073 -0.073780954 0.13672104 0.2797256 0.35864693 0.40868038 0.43901566 0.43723 0.110111654 -0.018132757 -0.07081942 0.39148247 0.4174663 0.44016963 0.09227487 -0.0023451447 0.022597104 -0.008053198 0.033679932 -0.047411628 0.07109366 0.17773183 0.011967778 0.37677002 0.16093247 0.016183205 -0.043007255 0.111094736 0.17353539 0.24419194 0.33820814 0.16215453 0.14464009 0.31048888 0.39928192 0.16220003 0.026099931 -0.0039030658 0.23335919 0.279386 0.31539547 0.23942 0.1649085 0.15392226 0.13606068 -0.039263353 0.04932311 0.34367055 0.3560105 0.44273692 0.46811783 0.4985972 0.28130522 0.26891255 0.21649164 0.0943786 0.426569 0.47930342 0.5370257 0.5524298 0.6182742 0.58772945 0.8700288 0.24797101 0.18979168 0.509656 0.571696 0.5919165 0.6478509 0.6666075 0.6618407 0.75050163 0.839943 0.8820963 0.55619484 0.6458537 0.6783245 0.69251734 0.7010508 0.68811625 0.7621963 0.8207302 0.8451929 0.6755104 0.7078898 0.7180323 0.71450704 0.7025548 0.8139361 0.8498622 0.85546875 0.8625096 0.88225234 0.8608489 -0.0518077 0.33252817 0.22864212 -0.042175338 0.11783655 0.14375976 0.10203369 0.44948828 0.4219008 0.37981576 -0.027463414 -0.11834246 -0.12517034 0.07325416 -0.032023013 0.62463677 0.57105404 0.48779336 0.37366158 0.3497758 0.33218455 0.2473969 0.06399415 -0.15610707 0.0024770647 -0.11415447 0.121054985 0.6282402 0.59823257 0.5003626 0.4622455 0.3641723 0.22525617 0.2355445 0.07563432 0.029650267 0.5875093 0.15374443 -0.25975168 0.0040159505 0.08740724 0.08214142 0.14658342 0.25250137 0.55456465 0.11789994 0.31328976 0.5177969 0.017052248 0.58872545 0.49502513 0.14231709 0.18530977 0.20660514 0.22331232 0.22553158 0.15554388 0.29558262 0.64076 0.55026805 0.46939585 0.39469564 0.18277091 0.13138284 0.08108258 0.001845941 0.03235367 0.13736854 0.17970657 0.4400711 0.5029292 0.6881096 0.5887177 0.52384216 0.07501077 -0.26693356 -0.23723702 0.42574048 0.40689003 0.6031667 0.5452242 0.040275037 -0.14811951 0.3666391 0.38210964 0.54127073 0.52009267 -0.10768312 0.34356838 0.47774318 0.43452677 0.2634926 0.4044281 0.4262637 0.40850267 0.335778 0.16987112 0.3155728 0.34040022 0.35517913 0.3597263 0.25539607 -0.2181646 0.3631714 0.3306883 0.43649662 0.42872757 0.4183166 0.30624932 -0.15304586 -0.27138552 -0.05855363 -0.05032643 -0.10009432 -0.16912456 0.06501068 0.25019616 0.4790364 0.432776 0.46931607 -0.068948254 0.049045738 0.01504321 0.35904884 0.4312482 0.470757 0.52517295 -0.07890681 -0.26237118 -0.15787616 0.17888391 0.11954071 -0.101410896 -0.1279629 -0.15613121 -0.08882553 -0.0057060868 -0.13288848 -0.066775195 0.171845 0.29767734 -0.110459894 -0.083925754 -0.17406133 0.08896862 0.053566992 0.15792228 0.08551666 0.15901136 0.14957225 -0.16646 -0.1809046 0.12947077 0.18134359 0.03378387 -0.26170188 0.18846169 0.20280895 0.23330861 0.29658055 0.11076497 -0.107259646 0.3315245 0.30459428 0.29522514 0.2854456 0.48024178 0.46159986 0.9889705 0.10451537 0.37254104 0.36623606 0.5439713 0.53871083 0.7345661 0.8811556 0.94248235 0.9655726 0.046568833 -0.02025 0.010737972 0.11037889 0.4098248 0.44774848 0.6556034 0.63117886 0.7313687 0.81662023 0.9035436 0.89341295 -0.0019860417 0.40077096 0.48422462 0.6844132 0.66426575 0.6521214 0.7067981 0.8562664 0.82449853 0.48275864 0.6328814 0.70486253 0.7087406 0.6980353 0.6889546 0.7225441 0.7594241 0.8206003 0.7792331 0.78271806 0.8551013 0.8867284 0.83130956 0.75526905 0.8756114 0.87475115 0.82163334 0.6376287 0.6164719 0.5350732 0.4626581 0.4254347 0.2164722 0.31131804 0.32466942 -0.1828934 0.020978823 0.18665506 0.18380734 0.59590197 0.5716908 0.46963054 0.32233784 0.2285181 0.030449186 0.019417044 0.64261365 0.64167 0.6075903 0.4570861 0.392986 0.16510653 0.15711316 0.6145614 0.6403339 0.31534034 0.16214623 0.13343629 0.53043973 0.5278678 0.5433268 -0.017759144 -0.09891893 0.099952236 0.071761005 0.03504443 0.48813635 0.46848106 0.46051478 0.46491373 0.102605134 0.31444207 0.2566346 0.35751197 0.3826427 0.37134922 0.31458914 0.31098187 0.7362286 0.6610929 0.5259522 0.46528018 0.2816155 0.1665948 0.19885042 0.21565977 0.23935486 0.016448103 0.0045157075 0.39661664 0.46004516 0.5024522 0.807845 0.73508215 0.62029046 0.016303131 0.5135608 0.5146012 0.8349756 -0.19158643 0.4838835 0.7378348 -0.21381879 -0.41091794 -0.3177584 0.44342452 0.44053167 0.5456525 0.43224052 0.39023435 0.22690508 0.28540584 0.3452885 0.24904051 0.23396805 0.3703379 0.03761062 -0.118777975 0.26110265 0.27164596 0.38514474 0.37062308 0.37774417 0.3780843 0.21439798 0.4026236 0.42101347 -0.057496525 -0.22484334 -0.24081802 -0.12573564 0.44138467 0.4641805 0.4657156 0.40838134 0.3334675 -0.18929657 -0.17174216 -0.0069950894 0.32747614 0.51712954 0.52355826 -0.051222153 -0.11329982 -0.065826744 0.062042147 0.096235715 0.096534826 0.017584208 0.42377445 0.52612746 0.05065178 -0.18706068 -0.2137131 -0.29194885 -0.20541432 0.10539676 0.03240526 0.0771614 -0.2277526 -0.26810735 -0.19651479 -0.21847776 -0.062957704 0.01558939 0.15105483 0.21770729 0.2923147 -0.10438347 -0.16944301 -0.16835284 0.059247434 0.2409972 0.3240071 0.33538347 0.20071742 -0.28852004 -0.19647563 -0.06812444 -0.0429267 -0.032302544 0.16842644 0.2075465 0.044718675 0.02773149 0.10121949 0.3144743 0.23619737 0.18251567 -0.16719553 -0.07788481 -0.02476769 0.3136552 0.31741986 0.16425541 0.41472435 0.9630169 0.9881836 0.23243763 0.19844338 -0.07388967 -0.05292542 0.36055732 0.42456922 0.36805212 0.45382094 0.805038 0.91223186 0.9699404 0.22602746 0.19546477 0.10205437 -0.02949733 0.113648504 0.08573826 0.12645304 0.43479484 0.431436 0.41260648 0.21010426 0.25616544 0.6028478 0.60468197 0.65997684 0.9045337 0.21937418 0.21638444 0.08725207 -0.06945568 0.15637608 0.20079476 0.21676682 0.21945426 0.40887463 0.14081645 0.6416081 