# vtk DataFile Version 2.0
Really cool data
ASCII
DATASET POLYDATA
POINTS 7952 float
-5.658374 20.812801 64.29949
-5.5803494 20.871393 65.20381
-5.5966597 21.299984 64.02461
-5.6554594 21.518984 64.495735
-5.6084356 21.353947 65.35334
-5.594972 22.143286 64.50635
-5.5833383 22.266237 65.22565
-5.8057723 31.131804 37.63369
-5.7941837 31.102118 38.144176
-5.8388724 31.58389 37.099026
-5.9781313 31.547743 37.65581
-5.91572 31.609537 38.262665
-5.68972 31.787918 38.797226
-5.7964315 32.838696 36.63466
-6.0615377 32.389248 37.503456
-5.8548794 32.341953 38.417477
-5.6621895 32.416428 38.717827
-5.627058 33.29817 36.310875
-5.821314 33.52831 36.7019
-5.8779488 33.50302 37.50948
-5.723482 33.316357 38.13355
-5.7136874 34.09498 36.800343
-5.719673 34.10617 37.329357
-4.681142 18.060127 63.95343
-4.801754 17.890772 64.70482
-4.746741 17.87212 65.318405
-4.8441463 18.599052 63.926014
-4.955879 18.52988 64.45336
-4.952197 18.478218 65.439964
-4.6802673 18.397356 66.21214
-5.0544047 19.826859 63.573296
-5.230977 19.74993 64.53945
-5.221469 19.718542 65.639084
-4.9253435 19.743156 66.43807
-4.702849 19.898657 66.95117
-4.9704885 20.710073 63.138172
-5.3213506 20.657984 63.551834
-5.5061464 20.35284 64.69761
-5.4472675 20.442478 65.44529
-5.226709 20.497984 66.244965
-4.897727 20.627247 66.872795
-5.1240816 21.437218 63.28175
-5.383897 21.474392 63.583378
-5.418266 21.615198 65.729294
-5.027291 21.364334 66.47664
-4.7899604 21.067474 66.96867
-5.209304 22.128605 63.624928
-5.394872 22.617943 64.68155
-5.3531394 22.529524 65.28325
-5.026653 22.186255 66.08023
-5.2827983 22.79313 64.42134
-5.293126 22.745424 65.11783
-4.5264335 26.458427 65.60272
-4.598703 26.813177 66.26987
-4.634607 27.4087 64.806786
-4.6209335 27.176323 65.67043
-4.5891523 27.674316 66.27216
-4.654938 28.611229 65.63695
-4.6012464 28.156422 66.48004
-4.908295 30.359924 37.904675
-5.2325478 31.038284 36.993053
-5.4073076 30.759714 37.72515
-5.387666 30.80947 38.369183
-4.981602 30.79246 39.026222
-5.513827 31.701628 36.737225
-5.623797 31.243336 38.60107
-5.310616 31.636763 39.069134
-5.180287 32.81979 36.02829
-5.5559597 32.579746 36.464725
-5.269463 32.391888 39.13876
-5.3509693 33.396915 36.112198
-5.4557433 33.494724 38.499798
-4.859974 33.151825 39.146854
-5.1128373 34.139385 36.04818
-5.492884 34.338108 36.57885
-5.516859 34.362656 37.401157
-5.0811133 34.319897 38.218433
-4.875379 35.056503 36.808475
-5.075662 34.838566 37.349194
-4.7406607 34.92169 38.06406
-3.7897282 17.142817 64.01323
-4.1344924 17.159071 64.66633
-3.9330175 17.00497 65.47452
-4.0165334 17.278082 66.02604
-4.243331 17.79325 63.686264
-4.4896803 17.568623 64.40174
-4.5096297 17.634422 65.54921
-4.1825757 17.849115 66.342186
-4.2345004 18.62471 63.128357
-4.5279016 18.521807 63.435287
-4.5975776 18.970455 66.42224
-4.1381273 18.715324 66.885864
-4.343537 19.57172 63.04783
-4.365101 19.896555 67.20859
-3.7283444 19.586758 67.726875
-4.4282684 20.781511 62.86228
-4.3802376 20.162592 67.220184
-4.1081195 21.312138 62.796383
-4.381404 21.808123 67.11873
-4.732359 22.150642 63.25388
-4.1805964 23.795801 66.2373
-3.8675113 23.5478 67.68671
-3.804644 23.744368 67.979416
-3.9568658 24.335598 64.53177
-4.188941 24.922743 66.37521
-4.127855 24.528448 67.42727
-3.6412106 24.674488 68.42429
-3.6195936 26.049822 59.703533
-3.7512343 26.111948 60.4625
-3.9311187 25.725811 63.769527
-4.3029275 25.913624 64.46917
-4.16855 25.5809 67.42886
-3.6405532 25.32493 68.21282
-3.807652 26.552153 59.712044
-3.9914389 26.735113 60.557953
-3.8190744 26.5901 60.982178
-3.774451 26.593952 62.635754
-4.025676 26.659237 63.402073
-4.4013934 26.404806 64.59646
-4.3277373 26.354378 66.62778
-4.33607 26.509985 67.08209
-3.8424459 26.697622 68.20231
-3.8508677 27.431198 59.806335
-4.027434 27.443516 60.482094
-3.9577396 27.642101 61.164146
-3.7259731 27.139694 62.52227
-4.3498025 27.522877 63.56219
-4.484659 27.522589 64.39571
-4.351501 27.059574 66.39651
-4.320686 27.673845 67.20914
-3.8903377 27.544716 68.15615
-3.743729 28.00814 59.951267
-3.8363671 28.068657 60.510494
-3.6681159 28.121485 61.538067
-4.308797 28.241058 63.791946
-4.479661 28.48805 64.255035
-4.4608564 28.466331 66.63587
-4.1752224 28.36158 67.54034
-3.9713857 28.586063 67.94637
-4.1035604 30.138906 37.863293
-4.395334 30.111021 38.5542
-4.121704 30.107988 39.27025
-3.928911 29.254702 64.001434
-4.163742 29.474815 64.69483
-4.3077035 29.470879 65.53585
-4.2755227 29.381636 66.415436
-3.9720018 29.38976 67.21432
-3.838107 29.024532 67.88027
-4.6152086 30.800055 37.041817
-4.355028 30.446262 39.47272
-4.0560994 30.75406 39.829502
-3.8884087 29.95679 64.83595
-3.9153707 30.04818 65.44329
-3.9114475 29.863968 66.50797
-3.712244 29.9083 66.992355
-4.614972 31.98449 36.150974
-4.4588866 31.442324 36.482784
-4.2887974 31.575527 39.87421
-4.463924 32.751614 35.884563
-4.6984897 32.36088 39.557636
-4.3812323 32.125797 39.573395
-4.1175356 33.75521 35.713917
-4.5311966 33.115257 39.277332
-4.4162855 34.20561 35.741932
-4.581006 34.478943 38.559376
-4.151881 34.678253 38.787216
-4.021317 35.55956 36.055893
-4.277513 35.64276 36.59717
-4.509041 35.386486 37.57716
-4.3741374 35.25948 38.003414
-4.157149 34.792088 38.778328
-3.8765962 36.18083 36.6814
-3.8843043 36.166615 37.207882
-3.9915342 35.747105 37.907284
-2.646897 15.181057 66.34033
-2.853159 15.734599 65.45413
-2.8745098 15.612481 66.59166
-2.8315568 15.9149065 66.983696
-3.257301 17.127745 63.712093
-3.5685291 16.904284 64.43691
-3.113421 16.41503 65.19323
-3.5460603 16.758268 66.05503
-3.1353219 16.596888 67.14302
-3.3865926 17.73315 63.216015
-3.5022836 17.450552 63.50349
-2.9164722 17.848639 67.940735
-3.553885 18.83597 62.76094
-3.4483666 18.405476 67.495575
-2.9710765 18.828049 68.35062
-3.398973 19.340824 62.7592
-2.7640843 19.08408 68.55348
-3.8600297 20.211336 62.78162
-3.0299325 20.529787 68.31343
-3.0956159 21.318016 62.40253
-3.1180725 21.242872 62.628883
-3.297467 21.395039 67.89333
-3.4817793 22.159018 62.83954
-2.8596604 22.417156 69.16253
-3.368839 23.613874 68.503395
-3.0159917 23.379797 69.02151
-2.7933555 25.068167 59.94008
-2.824447 25.262794 61.011326
-3.4594858 24.548552 64.00105
-2.9549406 24.74605 68.996284
-3.275125 26.085972 59.16984
-3.341122 25.681242 59.662952
-3.158675 25.609167 61.22004
-3.4310036 26.025473 63.099003
-3.1272366 25.292948 63.365856
-3.4077396 25.448717 68.43212
-3.1065955 25.160887 68.7938
-3.3081455 26.565657 59.05539
-3.1105692 26.62476 68.989426
-3.167488 27.448317 58.982475
-3.5980844 27.543428 59.413044
-3.50352 27.909431 68.58129
-3.4162006 27.51295 68.762314
-3.0320024 28.185402 59.245808
-3.2345781 28.264135 59.614914
-3.4731734 28.477537 60.442677
-3.4246817 28.171398 62.046535
-3.5539725 28.504282 68.38432
-3.2828114 28.012623 68.78334
-3.802834 30.051708 37.87401
-3.5622213 29.848537 38.578224
-3.4042206 29.883549 39.17448
-3.4389656 30.272335 39.829037
-3.2292564 28.684736 60.825447
-3.179593 28.698753 61.283432
-3.44286 29.475946 63.836296
-3.409507 29.427677 68.0971
-3.9875386 30.999699 36.83556
-3.9447856 30.478994 37.447334
-3.3376894 30.771427 40.139526
-3.048017 29.975233 64.12655
-3.3765786 30.201555 64.75048
-3.4385252 30.348547 65.45621
-3.3552244 30.245539 66.43151
-3.3002453 29.998653 67.398384
-3.171866 29.835798 67.921165
-3.5661025 31.840887 36.231133
-3.198302 31.588465 40.271046
-2.7194161 32.17111 50.668587
-3.5031788 32.585106 35.90372
-3.4458663 32.573982 40.123108
-2.6861906 32.76416 48.797497
-2.7963192 32.64622 49.592434
-2.9025135 32.651073 50.524357
-2.7410798 32.653873 51.28008
-3.6227343 33.70152 35.718082
-3.691742 33.54305 39.463963
-3.49459 33.06068 39.998283
-2.6971066 33.39109 48.603394
-2.8318627 33.375877 49.474495
-2.8783252 33.324844 50.61621
-2.734343 33.24559 51.267742
-3.3317373 34.341057 35.60122
-3.111439 33.937607 39.684574
-2.5961442 33.88715 48.979553
-2.6830604 33.86232 49.762375
-2.6601331 33.860313 50.575836
-2.6432014 33.788235 51.02857
-3.3839948 35.601322 35.665955
-3.6412892 35.67817 38.3615
-3.1023316 35.039383 39.220116
-3.2466235 36.29251 35.997227
-3.4960904 36.51805 36.581005
-3.624741 36.39842 37.35522
-3.2728992 36.1329 38.099907
-3.136149 36.724266 36.73128
-3.0210302 36.675476 37.31219
-2.9424882 36.590324 37.794994
-1.867698 14.158333 65.66565
-2.1117961 14.889611 64.94778
-2.2521167 14.592405 65.71333
-2.365207 14.778314 66.26949
-2.1250038 14.907486 66.9867
-2.4265008 16.139767 64.46344
-2.4997692 15.234187 65.37648
-2.5671444 15.335183 66.752655
-2.4184158 15.562599 67.20464
-1.7049254 15.79922 67.90533
-2.5952103 17.14798 63.608097
-2.648604 16.43613 67.61091
-1.8177719 16.654303 68.312
-2.9307203 17.58135 63.178356
-2.612411 17.428116 68.076035
-1.8533282 18.030016 69.19315
-2.5793018 18.703154 62.720078
-2.590093 18.30403 68.485016
-1.9120873 18.5679 69.291664
-1.830525 20.14656 61.801167
-2.72705 20.0804 62.47833
-2.080714 19.68055 69.35627
-1.7543281 19.523005 69.84552
-2.0416079 20.293268 61.75388
-2.7530167 20.151375 62.78301
-2.2377968 20.157782 69.26461
-1.7338994 20.70903 69.84313
-1.7583956 22.037056 55.70495
-1.8253622 21.94554 56.322414
-1.7840264 21.769896 60.9989
-2.1669996 21.379902 61.798527
-2.3016362 21.528381 69.46444
-2.043871 21.737717 69.740326
-1.7601628 22.709656 55.081516
-1.898602 22.574766 55.592026
-1.953545 22.45676 56.40477
-1.711135 22.23628 57.115135
-2.2136905 22.573753 69.92172
-1.6606368 23.386719 54.992638
-1.8601522 23.323597 55.48897
-1.8446858 23.5186 56.447605
-1.6676146 23.635885 56.93572
-1.7877247 24.264376 60.074146
-1.8268694 23.505781 61.729336
-2.1620626 23.84576 62.60433
-2.4451115 23.736353 69.419914
-2.3993554 23.219294 69.785934
-1.6255972 24.035326 55.77649
-1.7112889 24.093441 56.09833
-2.0357316 25.002993 59.65586
-2.2724164 24.829967 60.72677
-1.9795399 24.179232 62.074585
-2.185955 24.284065 62.75757
-2.1320834 23.983091 69.55404
-1.9251522 24.07241 69.65894
-2.634444 25.756811 59.02892
-2.3272505 25.503191 69.35122
-1.704969 26.052036 71.22854
-2.4871478 26.24476 58.699593
-2.369996 26.929379 69.81796
[...]
POINT_DATA 7952
SCALARS features_00 float 1
LOOKUP_TABLE default
0.55447376 0.49455246 0.55994344 0.53560466 0.4810975 0.5192469 0.46777546 0.8052807 0.7886931 0.8224037 0.80901074 0.76878977 0.71448076 0.7904194 0.81947654 0.72145116 0.677202 0.76726276 0.77505136 0.7472139 0.6833031 0.73963434 0.69071203 0.538697 0.511667 0.47350162 0.5505856 0.53624463 0.47289562 0.3843359 0.5498618 0.5387357 0.4401977 0.36415434 0.31445366 0.50464773 0.5645634 0.53063416 0.47008348 0.4065387 0.3466255 0.54238117 0.5636573 0.4458106 0.38423955 0.3327592 0.543607 0.4791609 0.43243283 0.36425805 0.46827352 0.42376843 0.29060417 0.3048935 0.3716853 0.33744225 0.36326385 0.49963287 0.4134481 0.775766 0.77628434 0.79575634 0.7850088 0.7656454 0.7947105 0.75753325 0.6944355 0.71308005 0.77419645 0.6179414 0.743515 0.59696263 0.5060207 0.75169456 0.730355 0.6432721 0.53219664 0.61476815 0.57663 0.49670824 0.46800578 0.47002628 0.40728617 0.37406525 0.5186635 0.5084028 0.44476575 0.35235786 0.49459586 0.5338885 0.34770417 0.28185079 0.41924906 0.2678706 0.18048541 0.38752174 0.27000505 0.35001892 0.25137806 0.5099135 0.13942093 0.17492856 0.18615326 0.07397542 0.20306182 0.20397998 0.18384503 0.58373386 0.5164468 0.1132139 0.21278629 0.24094243 0.20257962 0.6469847 0.5705445 0.47983828 0.15744886 0.18368366 0.28231874 0.273471 0.2838161 0.27263743 0.65719426 0.6001789 0.5176689 0.25051975 0.27755362 0.36767834 0.31944558 0.36752462 0.3354209 0.6294889 0.5903573 0.47956306 0.39205807 0.488972 0.45475894 0.43236876 0.4381474 0.68966424 0.76194966 0.76783943 0.5071651 0.56322753 0.59094304 0.55703676 0.5160584 0.46892947 0.7085717 0.7718101 0.73684704 0.55939263 0.5829586 0.56519926 0.5350977 0.6421256 0.630655 0.6346482 0.6190521 0.547434 0.5580552 0.6100785 0.46909234 0.69532824 0.45757264 0.40677577 0.6994432 0.61853206 0.51375246 0.4795772 0.4075048 0.62294066 0.56704074 0.4852512 0.2923846 0.3262819 0.27072823 0.23315287 0.41354662 0.4343318 0.36231863 0.33413947 0.22436196 0.43457144 0.45084232 0.12391582 0.3671094 0.18677887 0.1062571 0.27880093 0.094999164 0.27739495 0.104765 0.12417418 0.15435109 0.12422333 0.2394162 0.1617284 0.175574 0.1658996 0.33302486 0.2059675 -0.037449695 0.13314788 0.60787964 0.5127112 0.2502311 0.07232401 -0.025391378 0.18499976 0.14644432 0.66180825 0.15310773 0.6625544 0.66834855 0.3362775 0.27499726 0.6295642 0.62226427 0.5716839 0.40111145 0.4059703 0.3236435 0.64710313 0.6984304 0.72468543 0.72966576 0.5213529 0.47403985 0.46146333 0.4724381 0.5623312 0.61704993 0.7038218 0.4649334 0.5319179 0.5582181 0.5367071 0.50167036 0.48418075 0.42969298 0.6100145 0.77980167 0.42713594 0.44680798 0.6603594 0.7228514 0.77974033 0.7801049 0.50907034 0.37394544 0.3923322 0.6694248 0.70208216 0.7252876 0.72120094 0.5117558 0.32289898 0.6665813 0.6673999 0.6523526 0.65125006 0.67088115 0.43724728 0.35081688 0.6873641 0.6444249 0.5608298 0.47593153 0.6369056 0.57856286 0.5272088 0.35031897 0.3397026 0.337965 0.30714458 0.23083821 0.34941763 0.32937372 0.2539353 0.20222634 0.11940114 0.30397272 0.16968411 0.08235853 0.36348367 0.10922412 0.044968784 0.24997039 0.084278576 0.05298359 0.059471652 0.094279185 0.07071001 0.062377617 0.05097159 0.119821586 0.07489541 0.09459484 0.6223586 0.57649684 0.011028416 -0.0010568798 0.11119868 0.1396967 0.62768173 0.64940345 0.6347163 0.4965769 0.17178605 0.55995977 0.59749615 0.5749249 0.51547796 -0.03742255 -0.16745923 -0.19443226 0.13626525 0.15285204 0.47958452 0.4826671 0.22988862 0.08735399 -0.18681385 -0.18982664 0.10311957 0.07790379 0.52292436 0.0302668 0.033302657 0.5825504 0.00439626 0.047837876 0.101023 0.6061313 0.107379 0.1222776 0.6557206 0.67636144 0.581517 0.5885923 0.36246407 0.607832 0.49421996 0.5355085 0.6102608 0.6547782 0.68267065 0.43276042 0.3057598 0.26397574 0.3778831 0.27363604 0.34130237 0.5040026 0.44605058 0.42232704 0.3594879 0.44715923 0.30077913 0.6000285 0.5812298 0.7121217 0.7062907 0.7288411 0.68806005 0.25356138 0.621237 0.6233088 0.78123945 0.29262882 0.6301777 0.65091133 0.66603696 0.66947985 0.42148697 0.2525412 0.6435902 0.62883615 0.5850956 0.59302163 0.5893022 0.56185913 0.31028724 0.59291786 0.55678475 0.5186827 0.6898366 0.457681 0.41897163 0.6824064 0.65539384 0.56670827 0.5088792 0.28805238 0.27131885 0.27594122 0.094673194 0.1601969 0.17202377 0.09249346 0.1455965 0.17911218 0.21384826 0.068695456 0.18930703 0.19151458 0.11803427 0.21795645 0.20237109 0.082006946 0.06568886 0.096073076 0.05732388 0.07099395 0.6171875 0.49164605 0.36671922 0.30040509 0.08914394 0.10025184 0.116253875 0.6211076 0.65628695 0.64854085 0.59445626 0.57160735 0.46844822 0.3456111 0.13603248 -0.087283835 0.050499268 0.6037247 0.65700495 0.66661084 0.60007894 -0.11783987 -0.08771901 0.12375413 0.6440489 0.6440424 0.4033668 0.49317956 -0.14761105 0.09348961 0.37375525 0.42236942 0.3505376 0.35352868 -0.0689252 -0.09328482 0.3597235 0.3996351 0.288545 -0.073622584 0.012599476 0.11356391 0.1651187 0.24546465 0.35440546 0.35132474 0.38687813 0.281712 0.04823243 0.060517885 0.07462391 0.15071394 0.21981098 0.19636531 0.5732662 0.688289 0.7033367 0.66192555 0.42900163 0.10413387 0.08208557 0.09609262 0.13651717 0.5366897 0.6494787 0.61783403 0.57192105 0.31015623 0.45751217 0.17177662 0.16584513 0.15860042 0.14661711 0.13774174 0.13644874 0.12905681 0.4189046 0.5063299 0.6354053 0.3476209 0.26755363 0.32457808 0.3398974 0.36244255 0.35092166 0.36491734 0.41799784 0.15099123 0.2332519 0.2222414 0.19225387 0.19115253 0.16378812 0.18720739 0.21029618 0.4174934 0.58078676 0.69545245 0.37340206 0.49751562 0.5805052 0.36205113 0.34675306 0.37111133 0.37614027 0.35200375 0.34670645 0.365392 0.24884862 0.24709864 0.2701123 0.2427206 0.20885712 0.2198948 0.21626902 0.24218845 0.34145355 0.5012201 0.638034 0.71583396 0.33651337 0.42385137 0.3691749 0.3562833 0.28943813 0.47408068 0.52381897 0.5209651 0.3925813 0.51064056 0.6287756 0.7239833 0.15647912 0.47973642 0.41587883 0.39895943 0.520651 0.62425154 0.40517604 0.53884864 0.5936507 0.5779285 0.4918638 0.26081908 0.31990176 0.47284302 0.5602796 0.5192192 0.5018013 0.50722504 0.2526762 0.4664701 0.5313669 0.47939226 0.44666076 0.4573801 0.4414211 0.4519893 0.40637654 0.5627351 0.5457659 0.49833706 0.4405638 0.40221033 0.43372804 0.40668997 0.25346348 0.40059006 0.42609975 0.3956634 0.28289604 0.23339754 0.7396621 0.7073902 0.6622423 0.30655804 0.36651537 0.40278685 0.36631203 0.23813483 0.1416 0.19932535 0.21654117 0.7508041 0.7511294 0.724725 0.6846037 0.6105994 0.26981902 0.34408826 0.33326173 0.35903478 0.24933635 0.09863983 0.14328614 0.15904476 0.1490095 0.690506 0.65668553 0.62620485 0.5792243 0.51105464 0.1693315 0.27471328 0.21055873 0.12579326 0.16178939 0.1494212 0.16391116 0.5089487 0.43587208 0.44751966 0.43172002 0.086000144 0.18111119 0.18315029 0.19340745 0.19482525 -0.118118845 0.304595 0.34022698 0.002684474 0.34134227 0.36179012 0.0076991767 0.3582204 0.36887178 0.002984617 0.3436754 0.57934856 0.56155586 0.51019496 0.46534008 0.29206553 0.2832725 0.042742204 -0.028818889 0.58353794 0.584911 0.57276064 0.5792706 0.523234 0.24485219 0.2701414 0.18368018 0.023737509 -0.07307679 0.5385541 0.56600213 0.5925599 0.5788109 0.49975377 0.5207091 0.15046343 0.14317682 0.5107291 0.5587439 0.6010312 0.4644012 0.5701623 0.6090003 0.6023049 0.53376526 0.42230177 -0.21031532 0.022365857 0.3119238 0.3926628 0.43331122 0.43876475 0.5323005 0.08374424 0.1951594 0.13192628 0.26282486 0.3732253 0.43000907 0.4281851 0.3847971 -0.026661193 0.015368843 0.07909892 0.04581496 0.38368016 0.36151996 0.45088828 0.4672755 0.51584613 0.64344823 -0.10329007 -0.051423557 -0.09833583 0.13167742 0.24873063 0.3004117 0.25052726 0.46421245 0.5191964 0.62397844 0.14168032 0.0108937025 0.24330789 0.18101606 0.13879295 0.16249868 0.26966074 0.4005882 0.53317434 0.17557235 0.17804104 0.22292942 0.2800026 0.21419159 0.28612804 0.30767125 0.3492958 0.291307 -0.03516826 0.2323595 0.4322068 0.61030436 0.32779643 0.3709069 0.4813331 0.18561937 0.21866134 0.25503683 0.2008951 0.33034983 0.3644318 0.34546658 0.26349893 0.2141971 0.16855177 0.7226168 0.7896522 0.22163218 0.30394307 0.32326284 0.044815764 0.2606858 0.22070427 0.14635408 -0.09934385 0.21906795 -0.04127446 0.32047072 0.36454803 0.3593978 0.2603223 0.08151324 0.17620607 0.18982565 0.22189826 0.1945608 0.1963962 0.7758652 0.8374093 0.20196396 0.31156138 0.24377492 0.33935374 0.3809663 0.34613228 0.25875995 0.24904957 0.2530218 0.19641209 0.18763718 0.17284128 0.13722157 0.23189868 0.38990158 0.48561424 0.64153683 0.79139185 0.85875475 0.36038244 0.33270556 0.2802172 0.20533296 0.19623965 0.17180848 0.148275 0.32958546 0.40687376 0.5026763 0.63190174 0.77502394 0.83944106 0.30379534 0.435593 0.36564732 -0.046028003 0.3908621 0.37870902 0.4349132 0.24724354 0.03805457 0.29836774 0.38651478 0.4152911 0.35943854 0.35601294 0.36581117 0.48798114 0.4257714 0.40235546 0.4453538 0.45334402 0.4331228 0.40291387 0.43548048 0.45515585 0.42172223 0.38842744 0.39010704 0.39438277 0.4360423 0.37794244 0.30771378 0.22461164 0.34583074 0.37189752 0.34572607 0.6806507 0.66618586 0.60314 0.22240004 0.27987215 0.19206908 0.263984 0.31081158 0.30162054 0.1886593 0.7608293 0.75801647 0.7268127 0.69527584 0.6162516 0.5331094 0.21793732 0.29403093 0.25123397 0.21263395 0.14079586 0.6273484 0.6943854 0.7455299 0.757019 0.50339615 0.41227174 0.22174329 0.2604725 0.13871713 0.09621483 0.57372636 0.6851883 0.7276125 0.69846964 0.65386164 0.43201807 0.20227654 0.2043404 0.20160714 0.13361734 0.11007288 0.41630036 0.5843852 0.7038375 0.74900025 0.5913652 0.5838611 0.39031792 0.38008857 0.35727525 0.3927025 0.37790883 0.47857663 0.16644314 0.53641605 0.65042055 0.72943807 0.4754011 0.30812424 0.34749627 0.2891572 0.32093054 0.46142337 0.44631937 0.41636732 0.01628156 0.00021804497 0.2659281 0.38257194 -0.07750091 -0.09119703 -0.20343633 0.33803767 -0.018242512 -0.016726812 -0.13481332 0.36399305 0.3160203 0.29268995 -0.032580085 -0.015090136 -0.08883753 0.37876117 0.37434456 0.5334801 0.48533526 0.43489218 0.24074134 0.3168608 0.3264514 0.29131243 0.27367434 0.22774048 -0.12548809 -0.044481374 0.36548018 0.55714965 0.56785804 0.51244956 0.43746448 0.4322613 0.19792914 0.30263028 0.31547385 0.29324907 0.27154076 0.23831365 0.17075041 -0.14949869 -0.10014723 -0.121134445 -0.21227843 -0.17562763 0.28962263 0.57890207 0.3172128 0.23558012 0.24627757 0.24291557 0.23897578 0.21964824 0.16199854 -0.082167 -0.08842374 0.05720076 0.5868162 0.4926216 0.48314354 0.48152912 0.48856074 0.46118763 0.17713921 0.17738545 0.11781432 0.16925186 -0.002785243 0.57441753 0.57689524 0.5672692 0.55550146 0.54107356 0.5293027 0.4492383 0.46340042 -0.01946732 0.048182826 0.059693873 0.00031579286 0.3941306 0.57145476 0.5582155 0.5509195 0.5712994 0.5475743 0.5139083 0.49941325 0.3726528 -0.12059193 -0.06431565 -0.03053644 -0.021160949 0.119498536 0.38303605 0.40541753 0.42811868 0.3716222 0.37569094 0.46427697 0.41095608 0.4729487 0.42543882 0.36985928 -0.010765645 -0.018568214 -0.09681864 0.36138713 0.25422764 0.018760905 0.00791426 0.011588044 -0.02431278 -0.10649927 -0.088725254 0.35771927 0.34016758 0.31509578 0.3275327 0.44880927 0.03414964 0.0399404 0.0396242 0.0059818253 -0.0137801 -0.017662287 -0.07247868 -0.14612159 -0.184712 -0.1586904 0.32081717 0.26482868 0.5400237 0.42998442 0.038391102 0.043314796 0.079919174 0.12628052 0.12846245 0.05957274 -0.029387664 -0.028447706 -0.05125706 -0.15407121 -0.2962225 0.17191952 0.03232375 0.10276625 0.11714544 0.09574096 -0.030809902 -0.037019905 -0.052205686 0.1743814 0.29048797 0.68164015 0.71513695 0.24823585 0.07579616 0.050042793 -0.017663319 -0.05121887 -0.17439044 0.12666804 0.3152371 0.1250769 0.03607604 -0.020650622 0.8320147 0.14982615 -0.29510784 0.05736094 -0.12440434 0.05905429 0.16443312 0.18271905 -0.10267411 -0.050419215 -0.005098977 0.0888611 0.17391667 0.87648 0.8759382 0.5045915 0.41498047 0.2608825 0.13279524 0.16007738 0.21472274 0.22275858 0.25347906 0.221278 0.18509299 0.8732513 0.6463181 0.6284158 0.533463 0.39595658 0.19103268 0.24912202 0.23744366 0.22410084 0.16451867 0.18739161 0.33412582 0.39308733 0.4937965 0.6423503 0.76151055 0.82554317 0.71075237 0.70287 0.61857635 0.5359409 0.13796897 0.14519489 -0.073934466 0.2061568 0.17622338 0.2415913 0.181981 0.39632845 0.5256188 0.7360287 0.7348432 0.70098096 0.5958434 0.18751383 0.027011588 -0.09888595 -0.074745394 0.25326946 0.13638857 0.40349793 -0.16602197 0.2368179 0.3016894 0.2973897 0.2815616 0.4826135 0.4394399 0.2519812 0.10091189 0.019236892 0.14284632 0.20539546 0.3224753 0.313809 0.3034599 0.28091544 0.33123535 0.3076817 0.43272334 0.44317162 0.41565293 0.3708244 0.28980196 0.3637426 0.3568811 0.28785527 0.35080492 0.37871 0.3628759 0.17583951 0.23260984 0.3346562 0.22431761 0.6080555 0.56753504 0.53546375 0.30020267 0.1598604 0.19189897 0.30331367 0.15509766 0.08934829 0.1885131 0.33544427 0.7178376 0.70581836 0.6542338 0.35999018 0.2132798 0.17746517 0.14788744 0.2543772 0.41924068 0.56989664 0.63095975 0.70882654 0.7177315 0.19830446 0.26815066 0.72598314 0.7450119 0.59219205 0.674651 0.3153424 0.30707508 0.41814652 0.42052102 0.18686412 0.19984978 0.28515545 0.47137135 0.76536345 0.7719411 0.55082417 0.55787826 0.27032474 0.44394884 0.45897362 0.46230406 0.14777772 0.30847114 0.48986775 0.64068437 0.75861853 0.7856032 0.5127579 0.33746547 0.2509114 0.09890943 0.07711192 0.37645522 0.20279151 -0.08575686 -0.083587855 -0.24914846 0.4381128 0.6159079 0.73862004 0.33794376 0.18736343 0.18366824 0.24803281 0.17632681 0.3050949 0.28174558 0.24300662 -0.03187067 0.2346427 0.17401256 -0.0075140744 0.1715508 0.1198123 0.34400487 0.15731889 0.26148587 0.25922543 0.27690762 0.2195272 0.18461135 -0.08625632 -0.10604471 -0.07578101 0.3726672 0.4501939 0.40258712 0.2884624 0.06248403 -0.058229454 0.2024065 0.15577497 -0.19216686 -0.19911502 -0.29725972 0.37535137 0.49127486 -0.17398508 -0.27305394 -0.1505656 0.7748997 0.7662061 0.6725353 0.58071005 0.5673559 0.4467884 0.749173 0.7379937 0.6521491 0.5887618 0.5813246 0.56452805 0.35619253 0.45284486 0.42289507 0.452088 -0.012416018 0.18944398 0.7218078 0.6837305 0.59747684 0.5657846 0.5361966 0.45803508 0.5054989 0.5099478 0.3828078 -0.017935082 0.085308835 -0.14433418 0.09944796 0.1272641 0.20166263 0.32752663 0.3769917 0.67861885 0.53939265 0.5320178 0.51446444 0.44455993 0.49766663 0.35391444 -0.03149394 -0.14526129 0.34068644 0.3310749 0.44494686 0.49752927 0.4831245 0.47993696 0.41511124 -0.0060697477 -0.035849087 0.28878197 0.38080627 0.3553899 0.14888886 -0.112995386 0.0032979455 0.3357734 0.32027638 0.39319345 0.37950072 0.22358069 0.10382541 0.056564137 0.00559688 -0.10255191 0.280863 0.19163959 0.038308237 -0.09088302 -0.07134226 -0.17899732 -0.124432564 0.016101565 0.16921082 0.20827869 0.14409557 -0.0018788902 -0.0434859 -0.007565894 0.2800218 0.083974496 0.21111451 -0.0036577508 0.024394542 -0.11548749 -0.1665096 0.2841947 0.07828136 -0.080788076 0.21583714 -0.073980056 -0.057014696 -0.15939343 -0.3038965 0.36248666 0.013386518 -0.16581863 -0.054288555 -0.21297589 -0.08675244 0.7886381 0.5057237 0.46066216 0.28143942 -0.31341472 -0.31008613 -0.25028116 -0.45076913 -0.16579083 -0.12733974 -0.14118315 0.02613635 0.12738872 0.82572687 0.8535154 0.5964768 0.59076315 0.27753896 0.20390905 -0.014173232 -0.051138025 -0.19794287 0.16777503 0.21796784 0.11527815 0.8398104 0.63205254 0.11572415 0.054209825 0.23557982 0.22931841 0.15287036 0.09163848 0.19788203 0.19756961 0.7056058 0.7927159 0.68533933 0.7182857 0.31943062 0.110878125 -0.090019375 -0.15292834 -0.1209245 -0.09801547 0.2399275 0.2681976 0.2953564 0.4463718 0.17700866 0.27254334 0.28178537 0.22986102 0.42581606 0.5438556 0.63999665 0.73026097 0.73521614 0.6647222 0.6015644 0.35442412 0.05447921 0.04087247 -0.08446586 -0.19266924 0.28553113 0.43701428 0.45170736 0.49535877 0.54633784 0.7180421 0.71739286 0.6882311 0.5756249 0.32623473 0.23996273 -0.087184615 0.224881 0.44700682 0.49516326 0.5401418 0.6023933 0.42791873 0.18827388 0.10226939 0.2211884 0.26839375 0.35929447 0.42162564 0.2860179 0.29756486 0.28839934 0.27912503 0.49903798 0.5870224 0.49558717 0.49651238 0.39623395 0.2360573 0.22323713 0.31076935 0.33153832 0.42222863 0.4962747 0.44978085 0.51177585 0.3457005 0.37575817 0.31346816 0.31168276 0.1285481 0.15715726 0.23947293 0.25324917 0.26777053 0.47092068 0.46738523 0.12049436 0.08281559 0.08954325 0.12822749 0.406601 0.38722542 0.3695778 0.3823328 0.06471195 0.09144789 0.083867446 0.21211906 0.26302376 0.3324615 0.56625354 0.5100875 0.38568172 0.2555204 0.228594 0.13203268 0.4814227 0.6600902 0.6088263 0.011578831 0.1610754 0.73312235 0.52560383 0.55172384 -0.06827108 0.122400805 0.18889001 0.23539051 0.16892722 0.78266406 0.38328493 0.76509404 0.34332612 -0.16097857 0.25841048 0.6414585 0.67857575 0.7008024 0.25044605 -0.12823923 0.073197 -0.011873852 -0.03794901 0.0669423 -0.08699323 0.06991826 0.08994428 0.21286094 0.23078717 -0.09628496 -0.18337628 -0.039801724 -0.095070526 -0.15332748 -0.16781926 0.21918201 0.36954427 -0.07477447 -0.17498821 0.012690499 -0.24965042 -0.18313876 0.14677715 0.3076953 0.78670657 0.76360273 0.6912784 0.5770642 0.15653118 -0.04314577 0.777244 0.78819555 0.7753794 0.6376525 0.5707257 0.50345165 0.48058134 0.3640132 0.23223571 0.16116717 -0.18615356 0.27679557 0.7649348 0.76506394 0.5479977 0.17882952 0.22908935 0.3174333 0.24044204 0.23018387 0.25572878 0.23491426 0.7352177 0.73080355 0.3957987 0.12030001 0.11249099 0.15689625 0.16662394 0.28074384 0.3257457 0.66673005 0.344954 -0.0995327 -0.09458952 -0.00236265 0.3394642 0.34162894 0.4886104 0.45941243 -0.030399745 -0.055687968 -0.060466737 -0.10237912 0.13083902 0.32955334 0.35040206 0.37187207 0.25894973 0.18531932 0.31182835 0.29452106 0.20536444 -0.01084508 -0.016491339 -0.038692266 0.22145212 0.09184769 -0.06671758 -0.034414522 -0.41002464 -0.09999179 0.09479808 -0.07576868 -0.5512692 -0.17551214 0.06750595 0.23587352 0.16942714 -0.45517847 -0.31900334 0.37425327 0.64194864 0.44948268 -0.3805921 -0.37115797 -0.21346045 0.72323143 0.5670701 0.10063833 0.052164413 0.6986666 0.7561046 0.64277947 0.13148655 0.2868035 0.28043798 0.14293627 0.1823165 0.65359914 0.6820655 0.7238985 0.6465506 -0.22997732 0.45550823 0.5404917 0.27737647 0.25845212 0.18068734 0.2972802 0.59436935 0.6372732 0.65236473 0.691646 -0.2622463 -0.2307817 0.2098579 0.5853676 0.38513064 0.26332235 0.27827555 0.687444 0.6705191 0.65129626 0.44473198 0.3368309 0.23971237 0.13461927 0.04799963 0.4531623 0.68156457 0.6677715 0.35379094 0.40435228 0.440409 0.25082397 0.17728744 0.049073175 0.1255055 0.19684114 0.24459252 0.2371515 0.5353923 0.58535457 0.65080786 0.46458864 0.48103386 0.40703598 0.22514364 0.2764457 0.30754948 0.34805664 0.47869068 0.4162533 0.5090772 0.5920496 0.6083896 0.34087235 0.2940104 0.28903812 0.2668 0.031595465 0.2199663 0.48315427 0.49777293 0.2404779 0.18920097 -0.015338354 -0.12845907 0.07784159 0.09900913 0.13881943 0.15149684 0.2562344 0.4238535 0.4911913 0.49183354 0.4843126 0.29520994 0.0057154074 0.22452621 0.084153175 0.4392122 0.40043658 0.009769142 0.28442577 0.31418073 0.07272543 0.11757402 0.19003126 0.43629116 0.33499187 0.10613917 -0.05410801 -0.0016225576 -0.0132874325 -0.246727 0.7427675 0.31393248 -0.023720384 -0.07520229 0.6737075 0.32684278 0.26106483 0.47700453 0.54757524 0.58102846 0.35516456 0.2722196 -0.23130675 0.038775846 0.25313017 0.40221453 0.36705697 0.3098247 0.16404721 0.1177233 -0.1798485 0.36517012 0.44615668 0.57200116 0.29155734 0.17957795 -0.036260974 0.40707865 0.519136 0.5003859 0.49233198 0.47494468 0.0018917136 -0.03762585 0.029315706 -0.41924477 0.7584713 0.71730244 0.61805224 0.51167434 0.41430086 0.4249354 0.40754804 0.32661074 -0.0735866 -0.28265128 0.019815825 -0.46908528 0.7765294 0.76943815 0.31356552 0.47246137 0.3305955 0.3425709 0.23902088 0.0668706 -0.10097174 -0.0014911578 -0.07228374 0.3176634 0.32221884 0.30804121 0.7711271 0.2636572 0.22194402 0.17270736 0.053822048 0.2719137 0.23995002 0.74310035 -0.02364827 0.056903116 0.049098462 0.124559164 0.24634367 0.31663322