# vtk DataFile Version 2.0
Really cool data
ASCII
DATASET POLYDATA
POINTS 12596 float
-24.552557 -6.417009 -24.226408
-24.53811 -6.3082194 -23.975563
-24.530264 -5.745834 -24.503088
-23.765629 -7.7581043 -24.84763
-23.897512 -7.745771 -24.453508
-23.849213 -7.7938247 -23.840448
-23.724995 -7.0031924 -25.6485
-23.988047 -7.1801796 -25.162886
-24.247786 -7.339015 -24.376064
-24.137121 -7.36724 -23.677195
-23.922134 -7.0597425 -23.111715
-23.90785 -6.329481 -25.709679
-24.257824 -6.452362 -25.16034
-24.474 -6.5802126 -24.629587
-24.358881 -6.4640346 -23.539186
-23.992565 -6.675897 -23.042107
-23.76428 -6.0204372 -25.748352
-24.124018 -5.7318115 -25.214066
-24.42008 -5.536852 -24.615408
-24.347353 -5.4870896 -23.837511
-24.014803 -5.922365 -23.111828
-24.083755 -5.031667 -24.484015
-24.18777 -5.1624146 -23.910936
-23.751377 2.3222127 -19.460304
-23.765863 2.879177 -19.957624
-24.01751 2.7797592 -19.406677
-24.123104 2.8206918 -18.791235
-23.811047 2.9571373 -17.859695
-23.949585 3.4348166 -19.909655
-24.275145 3.5474837 -19.24307
-24.281065 3.505034 -18.67276
-23.941763 3.454748 -17.88157
-23.926773 3.9728024 -19.819315
-23.970478 4.2982154 -19.360836
-24.065094 4.2368474 -18.591774
-23.799225 4.2648067 -17.934431
-23.749369 4.7716126 -19.227495
-23.786018 4.7734184 -18.724682
-23.328207 -7.8014274 -25.006187
-23.442774 -8.017347 -24.313993
-23.52869 -7.8504853 -23.577866
-22.81246 -7.88537 -22.960213
-23.297493 -7.104927 -25.812454
-23.54763 -7.4390693 -25.393898
-23.407969 -7.397638 -22.90797
-23.318031 -6.507908 -25.96295
-23.529873 -6.545085 -22.681171
-23.001759 -6.2648087 -22.170473
-23.346886 -5.7067814 -25.82399
-23.410046 -5.4798055 -22.74522
-22.831135 -5.7261686 -22.083254
-23.42188 -5.087598 -25.25291
-23.672651 -4.759605 -24.386698
-23.331755 -4.783807 -23.472317
-23.636158 -5.213548 -23.111212
-22.56052 -1.025171 -21.328005
-22.620733 -0.4087735 -22.169214
-22.675453 -0.36133185 -21.565702
-22.688017 1.4025339 -20.079042
-23.00996 1.7236683 -19.44046
-23.145582 1.937916 -18.499216
-23.075888 2.2512307 -17.833122
-23.14434 2.5078611 -20.400005
-23.625519 2.4423501 -18.292976
-23.415388 2.7828324 -17.57426
-23.119007 2.9911454 -17.222404
-22.843353 3.7283008 -20.702639
-23.569912 3.7580411 -20.183437
-23.595888 3.3660278 -17.490492
-23.236343 3.4236448 -17.218508
-23.15605 4.3811426 -20.199873
-23.59887 4.5803423 -19.69247
-23.482172 4.321101 -17.664585
-23.073738 4.1042647 -17.285116
-23.091114 4.888068 -19.810486
-23.316622 5.0233374 -19.320587
-23.227398 5.1705627 -18.549425
-23.280882 4.9078817 -18.01052
-22.783613 22.0775 -9.347828
-22.926815 21.986483 -8.393041
-22.826488 22.047523 -7.716757
-22.677828 22.585337 -10.040462
-23.041471 22.623676 -9.265109
-23.197714 22.585178 -8.447489
-23.06755 22.603672 -7.71097
-22.787199 22.64402 -7.2191834
-22.822363 23.572487 -10.011678
-23.085194 23.446274 -9.435915
-23.237125 23.350815 -8.589682
-23.070322 23.375631 -7.7578526
-22.787418 23.329348 -7.210322
-22.733244 24.452957 -10.024175
-23.010933 24.378883 -9.468191
-23.06146 24.313568 -8.488784
-22.874943 24.455572 -7.953773
-22.66965 25.118244 -9.880332
-22.741304 25.233889 -9.448532
-22.81123 25.11427 -8.678487
-22.653702 25.095713 -7.8624816
-21.842117 -8.610932 -23.960064
-22.015053 -8.578034 -23.834108
-22.795082 -7.7237577 -25.420158
-22.354568 -8.240788 -24.495075
-22.426783 -8.31953 -23.274437
-22.181908 -8.086151 -22.735682
-21.946913 -7.852584 -22.300838
-22.382622 -6.9797907 -25.984648
-22.838095 -7.6172733 -25.576847
-22.604485 -7.5377703 -22.454271
-21.979082 -7.442238 -22.079819
-22.63068 -6.419273 -26.121996
-22.451984 -6.382913 -21.887417
-22.67831 -5.6878967 -25.937178
-22.488615 -5.691481 -21.916376
-22.376202 -4.875308 -25.177998
-22.635435 -4.5086074 -23.024166
-22.471819 -5.04581 -22.228235
-21.939526 -1.8049386 -22.184683
-21.730373 -1.8816012 -20.706814
-22.249434 -0.9227721 -23.55205
-22.18179 -1.5000328 -22.141666
-22.448029 -1.3640113 -21.43936
-21.758753 -1.4688033 -20.004725
-21.9909 -0.4797686 -24.364511
-22.390202 -0.37331375 -23.433445
-22.474873 -0.5466941 -20.71559
-21.977833 0.40351105 -24.377466
-22.279148 0.44436836 -23.542421
-22.425821 0.64247197 -22.039135
-22.36155 1.2091231 -19.712282
-21.854792 0.9728437 -19.206238
-21.843792 0.96687907 -24.206434
-21.876202 1.2244474 -23.47407
-21.945265 1.0190214 -22.473553
-22.479921 2.0290034 -17.807724
-22.388199 2.4580371 -21.010015
-22.56108 2.4649606 -17.384274
-22.367208 2.7354515 -17.166193
-21.959818 3.7849727 -21.273205
-22.437532 3.4775562 -17.03954
-22.142447 4.0431952 -20.94261
-22.222794 4.4519424 -20.571213
-22.331356 3.9771626 -17.074795
-22.229397 4.897008 -20.162016
-22.587944 5.337401 -19.246664
-22.713488 5.3920918 -18.69931
-22.199017 5.277855 -18.166391
-22.285137 5.5078053 -18.55586
-22.025993 21.430077 -9.145992
-22.119776 21.41207 -8.635465
-21.854092 22.109745 -10.681025
-22.196873 21.952566 -10.216075
-22.245447 21.607527 -9.480606
-22.402996 21.601511 -8.376768
-22.439367 21.7572 -7.762786
-22.415405 22.054405 -7.2272882
-22.005291 22.67357 -10.766463
-22.354246 22.535755 -10.456074
-22.54091 22.493837 -7.1146493
-21.96512 23.504301 -10.759828
-22.444637 23.472376 -10.480291
-22.66809 23.263927 -7.147489
-22.02643 24.551888 -10.647883
-22.416084 24.607908 -10.374765
-22.393717 24.81268 -7.2411766
-21.61928 24.263489 -4.400224
-21.545027 24.482075 -4.0536423
-22.282955 25.295166 -10.200639
-22.521744 25.56473 -9.5866785
-22.561848 25.581871 -8.638519
-22.286114 25.53055 -7.902497
-22.083643 25.765509 -9.951913
-22.226753 25.836937 -9.462892
-22.227325 25.868895 -8.634449
-22.138393 25.767488 -7.8617024
-20.678709 -24.24464 -15.490842
-20.667736 -24.206085 -14.592591
-20.784607 -23.265333 -16.238342
-20.928959 -23.45414 -15.262503
-21.007711 -23.229898 -14.813139
-20.627596 -23.162731 -12.511655
-20.737709 -22.577204 -16.326126
-21.032955 -22.709072 -15.454339
-20.941744 -22.586111 -14.56928
-20.730324 -22.42471 -13.733914
-20.629057 -22.396065 -12.2807045
-20.626091 -22.378326 -12.04993
-20.64375 -21.91019 -16.08523
-20.828594 -21.9413 -15.396075
-20.82503 -21.810888 -14.623189
-20.583967 -22.07687 -12.666623
-21.512865 -8.7017975 -23.935287
-21.338818 -8.772058 -23.47558
-21.279978 -8.674459 -22.791574
-21.36782 -7.9775567 -25.35177
-21.440094 -8.425455 -22.533695
-21.402277 -8.053942 -22.195011
-21.425993 -7.2065277 -25.757994
-21.782036 -7.0677576 -21.76816
-21.6276 -6.421967 -25.924545
-21.324419 -6.739295 -21.638239
-21.214088 -4.66646 -22.026247
-21.09635 -3.6192539 -23.538683
-21.113197 -3.8442488 -22.574158
-21.29866 -2.518958 -22.962034
-21.404768 -2.033351 -22.784159
-21.195362 -2.3367171 -21.445074
-21.039038 -2.1905212 -20.23183
-20.876675 -2.224843 -19.248318
-20.674604 -2.2203887 -18.421696
-20.67062 -2.000208 -18.215187
-21.524143 -1.6743978 -19.954609
-20.865004 -1.6792861 -18.451115
-20.688408 -1.6836537 -18.1441
-21.256655 -0.4602806 -24.970236
-20.739271 -0.73301685 -18.553547
-21.301422 0.34093451 -24.983986
-21.777672 1.130339 -18.582102
-21.051529 1.02631 -24.821716
-21.3228 1.2812058 -24.423258
-21.155243 1.7436793 -23.989435
-21.083607 1.8965466 -23.54507
-20.926075 1.959828 -22.611801
-21.584764 2.7148383 -21.443056
-21.777136 2.978786 -17.08694
-21.184967 4.231722 -20.988922
-21.522678 4.905501 -20.24629
-21.836193 5.175919 -19.69378
-21.781666 5.267504 -18.036554
-20.730299 6.1966653 -16.023928
-20.882486 6.572817 -16.274908
-20.846111 6.716943 -15.58722
-20.63492 6.744826 -15.09442
-20.881983 7.1136975 -16.279955
-20.80816 7.3832297 -15.694275
-20.676273 7.367096 -15.2013235
-20.64359 7.7956767 -15.8002825
-21.539341 21.428547 -10.005172
-21.502598 21.380186 -9.478851
-21.74023 21.381859 -8.539616
-21.318548 21.996147 -10.755705
-21.491402 21.639872 -10.35012
-21.328197 21.55414 -8.185479
-21.27094 21.957603 -7.4358177
-21.545654 22.429312 -10.877896
-21.363123 22.696512 -6.677956
-20.995485 22.820314 -4.528843
-20.781944 22.633873 -3.534235
-20.659271 22.692205 -2.7161694
-21.595533 23.483438 -10.909055
-21.416843 23.437328 -4.3165016
-21.357334 23.499445 -3.832492
-20.918383 23.610247 -2.8264651
-20.510712 23.743969 -1.0458635
-21.37052 24.391415 -10.901061
-21.477703 24.603167 -6.3686767
-21.494045 24.74734 -4.9901733
-21.480007 24.701155 -4.117768
-21.425554 24.405506 -3.7307653
-20.99216 24.04258 -2.8858407
-21.71161 24.914536 -10.711394
-21.713877 25.570839 -10.365646
-21.244093 25.25411 -4.4709697
-21.163065 25.034643 -3.7097616
-21.399872 25.943527 -10.118292
-21.351254 26.288078 -9.193517
-21.361233 26.311848 -8.719393
-21.419725 25.969109 -7.6209006
-19.859623 -25.763222 -15.970208
-19.883558 -25.836672 -15.554968
-19.799 -25.211452 -16.747229
-19.962168 -25.325949 -16.367062
-20.233274 -25.307583 -15.607148
-20.277306 -25.244202 -14.707492
-20.142313 -24.296242 -16.656782
-20.328045 -24.399548 -16.310808
-20.421085 -24.831427 -15.854485
-20.43915 -24.388212 -14.128338
-20.41642 -24.313322 -13.856199
-20.106478 -24.221935 -12.687471
-19.865307 -23.955933 -11.719927
-20.345413 -23.484062 -16.76165
-20.401297 -23.761831 -16.565302
-20.303547 -23.37515 -11.738139
-20.329418 -22.554869 -11.471385
-20.124453 -22.483566 -11.242188
-20.238947 -22.059177 -16.755287
-20.38976 -21.795498 -16.380377
-20.45112 -21.499378 -15.837928
-20.386076 -21.667814 -12.393819
-20.27424 -21.884907 -11.774617
-19.912216 -22.031792 -11.030182
-19.644754 -20.23682 -19.42073
-20.006521 -20.971684 -15.312077
-20.040043 -21.07327 -14.443366
-20.020273 -21.19757 -13.51895
-19.97489 -21.149902 -12.305305
-19.715893 -19.598156 -19.387266
-19.747477 -19.590263 -18.501022
-19.618837 -19.714954 -17.870525
-19.596478 -18.988697 -19.328705
-19.588022 -18.964958 -18.955988
-19.873163 -15.913932 -13.499503
-19.675882 -15.834793 -12.575237
-20.064825 -15.267354 -14.347061
-20.212847 -15.334322 -13.615884
-20.081015 -15.223359 -12.659232
-19.730608 -15.089616 -11.723714
-19.612123 -15.115425 -11.165719
-19.839642 -14.709389 -14.768583
-20.187696 -14.601649 -14.219737
-20.31687 -14.537289 -13.533428
[...]
POINT_DATA 12596
SCALARS features_00 float 1
LOOKUP_TABLE default
0.9063616 0.8926188 0.90240365 0.7996824 0.8192327 0.80018115 0.8098674 0.83645284 0.8745272 0.84635556 0.7692672 0.84758884 0.8860561 0.90555465 0.8557911 0.7682287 0.8490318 0.8944341 0.898909 0.8482296 0.76301044 0.871266 0.83588326 0.7673507 0.7984037 0.84687424 0.8855304 0.80528504 0.82075644 0.9005983 0.95132744 0.8775002 0.8048506 0.83443594 0.9219452 0.9286994 0.80122495 0.84987986 0.7570122 0.75221115 0.7450985 0.62215555 0.77150536 0.7905405 0.6777935 0.7881235 0.6721475 0.58928776 0.82314074 0.6473516 0.5585145 0.8624066 0.8386173 0.6805845 0.6986815 0.38174117 0.45913368 0.4147391 0.48519713 0.6046494 0.63861465 0.6589286 0.7093271 0.7523661 0.72880036 0.7037761 0.6149205 0.7448584 0.79394615 0.7411616 0.6683296 0.7541287 0.8994093 0.8073332 0.68174404 0.7443713 0.79761124 0.86477613 0.8430947 0.8229612 0.76923925 0.78243995 0.84912944 0.8253702 0.7615448 0.7212143 0.70438635 0.76254785 0.782072 0.7087501 0.65217507 0.6670891 0.6834469 0.66342926 0.5988138 0.65744793 0.64914936 0.6192854 0.55250716 0.64112276 0.6352751 0.71651673 0.68822503 0.61954236 0.57553476 0.53327554 0.675015 0.72044814 0.5669768 0.5109394 0.7151729 0.52636766 0.74022067 0.50934356 0.6864728 0.47857386 0.4834563 0.34574673 0.2841276 0.49449533 0.37084007 0.37231702 0.2327137 0.69407773 0.55908597 0.2990969 0.6860918 0.6229558 0.4416741 0.41755876 0.35008332 0.6445151 0.59176683 0.5160984 0.58028233 0.5721572 0.6164181 0.5993354 0.43102056 0.6210748 0.47497812 0.5030449 0.65517753 0.52822995 0.6667371 0.7283185 0.72021145 0.6830629 0.74750566 0.71871424 0.7625423 0.79497325 0.79508483 0.7583439 0.7289525 0.69094455 0.71768093 0.75005764 0.6984923 0.6578189 0.67939913 0.6445668 0.6372191 0.6519958 0.4599145 0.43743512 0.44987008 0.6494465 0.64399505 0.60589945 0.54829866 0.6429421 0.63148785 0.59544003 0.54157287 0.55508745 0.5365428 0.5426337 0.5581195 0.5379058 0.4736551 0.53485656 0.55144733 0.5122917 0.47240883 0.47087252 0.4733112 0.5142738 0.520681 0.49174702 0.46288583 0.64390576 0.62568617 0.590363 0.619687 0.56512713 0.52704465 0.5466338 0.4801639 0.5332499 0.43949077 0.35532457 0.21248281 0.14798774 0.10521595 0.2858031 0.27731347 0.22948332 0.27802685 0.33808804 0.35149705 0.22992858 0.3326906 0.3507111 0.6589276 0.28367907 0.66299635 0.40441936 0.61606055 0.61032176 0.5543271 0.5073131 0.340389 0.32878166 0.48981875 0.33716512 0.39424586 0.49557728 0.651268 0.57200754 0.65867376 0.64764434 0.6290293 0.6983168 0.7032714 0.69318056 0.7162465 0.77069545 0.7194421 0.6433563 0.74993896 0.7779597 0.5376741 0.49454758 0.72298455 0.493505 0.42997205 0.4413107 0.42581242 0.6401183 0.4493603 0.46096423 0.46237698 0.5785943 0.6057163 0.29814142 0.40592292 0.44628525 0.4597982 0.46872753 0.62665904 0.6380211 0.4271198 0.44910103 0.6352379 0.5954275 0.5641297 0.46666074 0.5961375 0.60688126 0.5614315 0.5712956 0.5806444 0.58008635 0.52472806 0.53989977 0.5585658 0.50867146 0.48806375 0.4339419 0.42965287 0.49370384 0.51363105 0.46149528 0.4718259 0.46833324 0.46427885 0.47502995 0.45527187 0.45391905 0.46423098 0.4561796 0.5368229 0.35492176 0.41321167 0.4285277 0.43492493 0.5215098 0.4451601 0.39316505 0.49948034 0.48264074 0.70835614 0.5111249 0.8626746 0.80706245 0.6278881 0.43117335 0.36336148 0.8821386 0.85541046 0.81434023 0.7244792 0.510157 0.42217147 0.7921388 0.7230058 0.6999249 0.5935011 0.46953443 0.66033584 0.6609206 0.6167902 0.6822548 0.6492704 0.61402714 0.5655679 0.5421277 0.48566535 0.5173351 0.44256818 0.42226505 0.39153945 0.3320049 0.355674 0.33655658 0.33043915 0.23740396 0.20964223 0.18494093 0.24603184 0.31179976 0.32759959 0.3776644 0.4023362 0.36882997 0.3983476 0.5457532 0.32279477 0.34961912 0.57757705 0.5569595 0.5341865 0.50683093 0.41719726 0.044643108 0.1116995 0.20026821 0.029569004 0.23698518 -0.027722403 0.24955311 0.23086062 0.12967427 0.5523796 0.5559721 0.6969029 0.68452334 0.57847726 0.68856597 0.7220198 0.70968974 0.5976056 0.72892606 0.5317771 0.4342916 0.26683646 0.20873433 0.1826822 0.33617586 0.3615833 0.34925696 0.4034929 0.70906556 0.40874422 0.47373265 0.6279988 0.74137974 0.7892528 0.6038712 0.52317333 0.707898 0.77918243 0.8348348 0.5274241 0.44528264 0.6806609 0.79421544 0.8411398 0.58035994 0.42134333 0.3848423 0.45256448 0.6411927 0.70508444 0.60520184 0.58181274 0.43683416 0.24174808 0.36666584 0.38232884 0.5789057 0.59436023 0.6112446 0.5835295 0.4641875 0.5606297 0.5835135 0.42801988 0.35568053 0.52103823 0.3416682 0.37990302 0.41269413 0.42229804 0.31862524 0.49392956 0.22038572 0.27915078 0.4364615 0.5393462 0.52796423 0.49845508 0.31979012 0.53833914 0.55681384 0.23974292 0.22169283 0.4132387 0.50208616 0.546447 0.383107 0.32003152 0.41405308 0.45836687 0.48895612 0.49334484 0.47276932 0.42177463 0.34230667 0.28110063 0.34031796 0.4317987 0.50415784 0.58778054 0.45900115 0.5783951 0.3094391 0.21749693 0.28729868 0.35566646 0.42507112 0.8416391 0.7696755 0.62967044 0.32319254 0.27852008 0.19694725 0.8801091 0.28356174 0.22898497 0.86847174 0.3382303 0.27766895 0.17664927 0.7215018 0.6773493 0.428052 0.31570455 0.66655225 0.6076232 0.61338663 0.6043888 0.52407604 0.5849025 0.67883927 0.6673093 0.54761654 0.6337935 0.5902175 0.52860224 0.41125965 0.4515121 0.20040879 0.30917004 -0.01338926 -0.15641764 0.29927677 0.28242624 0.19294247 0.2375892 0.13528189 0.20981756 0.35089573 0.39629072 0.23516358 0.42440808 0.38843337 0.36429292 0.43661803 0.30454272 0.3056434 0.30287123 0.47710073 0.24587643 0.49812567 0.46914458 0.44652227 0.27997577 -0.0073793456 -0.28135154 -0.35322696 -0.0738457 0.26077145 0.36613777 0.10709123 0.32503018 0.17311355 0.5293554 0.25718087 0.3314573 0.45197254 0.61613744 0.42075652 0.5091276 0.56961 0.65818214 0.58793217 0.65135205 0.6041087 0.6575384 0.615914 0.5639325 0.5480305 0.5996249 0.55525047 0.53968537 0.5453307 0.5370422 0.23014677 0.17485288 0.1636577 0.20090282 0.241934 0.2642189 0.28770378 0.34180468 0.4831035 0.6485927 0.74157786 0.5810547 0.72123134 0.7793582 0.8213971 0.8000236 0.40891156 0.8319142 0.43236065 0.37933767 0.5194384 0.66345096 0.7375113 0.5317372 0.20789872 0.3080006 0.29137984 0.26392245 0.32028407 0.47839215 0.008010104 -0.018630557 0.5410068 0.56736875 0.5966302 0.51991785 0.5354469 0.29996443 0.15850003 0.4794116 0.36167857 0.520084 0.5138234 0.45451814 0.31492695 0.5274704 0.27588272 0.5324036 0.29532838 0.39811227 0.46610224 0.45315796 0.13361154 0.35981977 0.47583377 0.5393481 0.59165233 0.6645436 0.44976524 0.31136248 0.1634312 0.17584018 0.26484704 0.6335671 0.68763584 0.6872629 0.5283393 0.3800762 0.4441612 0.45561272 0.2681508 0.39637202 0.4911325 0.6618525 0.68468803 0.55161893 0.5013668 0.74010706 0.14037655 0.16142453 0.30189317 0.33224574 0.50680625 0.5996517 0.5366567 0.76667726 0.14133842 0.26688614 0.35996592 0.71590793 0.23752913 0.07331976 0.74389064 0.64497656 0.34225237 0.19231762 0.015219249 0.3281923 0.5767347 0.53664064 0.44883442 0.4005636 0.11761344 0.2302212 0.30217546 0.3757333 0.39730042 0.44543028 0.48087752 0.27812824 0.3779323 0.43223512 0.47900492 0.2590593 0.37489083 0.43671024 0.4748489 0.14904968 0.37327847 0.41580617 0.54765743 0.5232211 0.49661237 0.35188702 0.4394169 0.42521232 0.42294157 0.34355897 0.37737793 0.3656889 0.45321938 0.52024484 0.5039356 0.46158344 0.35226917 0.14452192 0.42549312 0.49991673 0.5383641 0.5255629 0.48330587 0.3185109 0.32901287 -0.11583766 -0.0067878175 0.41804254 0.43021977 0.4801662 0.496326 0.31177652 0.32031345 -0.110323384 0.24456817 0.30476674 0.29221916 0.32715285 0.39415416 0.27421838 0.39010635 0.33378106 0.2605859 0.32552397 0.37699586 0.10431664 0.07345037 0.37696633 0.2895191 -0.39181358 -0.2921997 0.2014865 -0.14825311 0.1023858 0.1893428 0.23168981 0.3477968 0.3396282 0.36594003 -0.043263998 -0.065013856 -0.06551154 0.08087803 0.20392461 0.29921034 0.3640216 0.40283084 0.42219862 0.474329 0.51173836 -0.00037049316 0.09734012 0.15808758 0.36882424 0.4355216 0.4688372 0.50101304 0.5360255 0.0020082816 0.05355075 0.27329418 0.3534005 0.42164826 0.50445205 0.5642445 0.56573784 0.07260913 0.20150886 0.20138547 0.31772852 0.39590392 0.43170184 0.51227736 0.54247797 0.547338 0.30109447 0.34050298 0.36086136 0.46371096 0.39924687 0.4622056 0.49058554 0.5316522 0.54927665 0.49625722 0.62164724 0.5862062 0.8599212 0.6920255 0.67156065 0.609428 0.53387636 0.5189271 0.59745544 0.6653479 0.79633784 0.8342099 0.8105295 0.6962024 0.67819023 0.61834097 0.5685363 0.538897 0.51796454 0.5670079 0.59261906 0.72012866 0.7502825 0.7411923 0.65865624 0.6515902 0.60080266 0.52687067 0.511141 0.47294676 0.5394479 0.58097625 0.66189563 0.6692641 0.5770834 0.5618131 0.5822687 0.55008155 0.5205908 0.49641168 0.43378162 0.50270367 0.5467331 0.54699326 0.5093583 0.46874246 0.17929971 0.20287114 0.23385653 0.28242475 0.4595679 0.4239058 0.36667135 0.098340765 0.1568507 0.16934715 0.20537975 0.26032677 0.47222078 0.6576123 0.70525926 0.49384648 0.47427744 0.43964535 0.3848427 0.35584623 0.2747401 0.74479485 0.7568868 0.49480414 0.48472583 0.4495729 0.3977367 0.33416218 0.770686 0.49984616 0.47511303 0.43898225 0.36930656 0.34808487 0.7617165 0.78594565 0.34916708 0.6379407 0.72418857 0.38649136 0.2254025 0.22720894 0.22713429 0.51800704 0.5764933 0.42327288 0.448577 0.4810692 -0.021407403 0.48905742 0.5310009 0.53674793 0.54532725 0.19530657 0.28547338 0.56404847 0.5446855 0.54737425 0.553734 0.54509157 0.5475353 0.5494758 0.3334009 0.33869636 0.26173222 0.201853 0.5365546 0.38862878 0.13265601 0.118715644 0.063734666 0.053797282 0.038019627 0.38926116 0.26116183 0.15396644 0.007493876 0.48356438 0.4794257 0.4894991 0.49343175 0.1535655 0.21709427 0.3313473 0.47016335 -0.05700983 0.26607573 0.3944787 0.41931796 0.49630114 0.40635687 0.33527517 0.08269396 0.6037308 0.66228026 0.35865352 0.13934931 0.6679652 0.49373156 0.19680378 0.26113105 -0.07826327 0.6551063 0.5460199 -0.06151921 0.5884646 0.6212356 0.52763146 0.51518846 0.37672022 0.3464386 0.29883057 0.4948497 0.42901623 0.40124333 0.28710237 0.6294643 0.4805854 0.115026146 0.3686424 0.2704997 0.29383907 0.44160634 0.52171856 0.37189716 0.45136505 0.5624746 0.5154941 0.27793053 0.27555776 -0.017241426 0.013491936 0.095574215 0.4737088 0.5681108 0.6110903 0.40514845 0.28190708 -0.16822052 0.02657982 0.5162736 0.56889844 0.5874018 0.12128323 0.18122719 0.0032632537 0.36358592 0.50418955 0.2826926 0.28250065 0.21821794 0.17647064 0.14764155 0.36682016 0.37880814 0.42191976 0.38685873 0.3060886 0.1909004 0.22738674 0.31470233 0.2872703 0.26667 0.31220293 0.2976313 0.29433078 0.32587117 0.38027576 0.35088018 0.15126899 0.31809974 0.35316953 0.4401167 0.41176015 0.33422965 0.025034873 0.33945924 0.3619556 0.37353486 0.4123112 0.46586883 0.44330853 0.41362897 0.32711267 0.016742725 0.30789766 0.29841036 0.33150306 0.3369379 0.25034502 0.30814955 0.3055735 0.2758552 0.27407765 0.3118418 0.23159976 0.13133928 0.19213152 0.0822157 0.11452513 0.16036168 0.19699189 0.20746967 -0.055976737 0.25428456 0.29642665 0.35341787 0.4336926 0.41764712 0.4711693 0.51567435 -0.04618939 -0.054003 0.55165607 0.5593635 -0.023588667 0.5707993 0.56497705 0.5419803 0.53971803 0.2354728 0.24884818 0.123361476 0.24278045 0.27987674 0.35218307 0.43781793 0.46526486 0.4730969 0.39927492 0.25396547 0.33955485 0.42922243 0.46019214 0.47238797 0.45902288 0.3747877 0.8233346 0.57177544 0.6087698 0.537879 0.7727505 0.8290628 0.84855473 0.8262094 0.5992191 0.63267636 0.36220056 0.4381445 0.66345316 0.79028404 0.7451873 0.62983406 0.67590106 0.5742282 0.7077807 0.69509554 0.5530225 0.6169989 0.44265875 0.47017205 0.5949974 0.62346834 0.5640844 0.20587087 0.38324136 0.45994353 0.46970946 0.4711347 0.48532224 0.35863405 0.06557918 0.2648958 0.3080124 0.4636727 0.4150112 0.1102026 0.10809268 0.3637918 0.31844753 0.2990082 0.1535332 0.3522007 0.28661668 0.35519972 0.34869224 0.3869387 0.32480425 0.28198433 0.18582706 0.16125226 0.4355039 0.4395079 0.3556292 0.3438667 0.2859909 0.37508196 0.27129886 0.12083018 0.117323734 0.35480395 0.4033454 0.4288606 0.38055015 0.23504652 0.06753957 0.15373114 0.5441492 0.45716548 0.37207192 0.30102938 0.18462208 0.22910652 0.338862 0.28734675 0.2396526 0.028260723 0.13464838 0.13210022 0.10273915 0.07384868 0.13138373 0.5481131 0.65961003 0.5524192 0.52052826 0.37032127 0.25566828 0.26187837 0.09535879 0.07350373 0.6645777 0.721498 0.5433653 0.5337837 0.503824 0.35580903 0.3213581 0.19284487 0.14457509 -0.18617381 0.6921795 0.70113635 0.5267173 0.5146065 0.5083381 0.44033438 0.38848066 0.26867086 0.16337755 0.015297301 0.19843256 0.6434019 0.5031969 0.48948896 0.4580739 0.37020484 -0.037171442 0.285303 0.52461433 0.6162619 0.23739603 0.20761795 0.22206798 0.3692725 0.5267522 0.44906563 0.297143 0.32788506 0.43560436 0.54851794 0.46588162 0.4349255 0.43179178 0.16103096 0.18830054 0.4925758 0.50840557 0.6301522 0.6052449 0.491391 0.12257701 0.36944973 0.44856983 0.5100039 0.5257889 0.65032876 0.6237023 0.5803518 0.5458404 0.5430246 0.5392842 0.49400467 0.44141847 0.5211817 0.54683423 0.54257524 0.57784235 0.5558958 0.54566145 0.5366975 0.3997364 0.4038154 0.37756303 0.37699246 0.35017604 0.29491237 0.2670715 0.10105333 0.17678583 0.43962175 0.49955374 0.061380547 0.085960954 0.41524827 0.5177665 0.17688853 0.119311616 0.11340869 0.25826526 0.49288502 0.5456243 0.21812212 0.18071988 0.19459593 0.43734998 0.44588953 -0.24185105 0.408809 0.308934 0.28810975 0.23266849 0.5832014 0.57195234 0.58136106 0.29859668 0.39035732 -0.11581414 0.55789864 0.37921464 -0.2660026 -0.53428054 -0.043025404 0.5165083 0.3615599 -0.002877161 -0.077725835 -0.054021996 0.23052664 0.34235916 0.19801332 0.27320153 0.24152067 0.2934354 0.2876489 0.35854766 0.51570314 0.19461544 0.22672725 0.326822 0.40165147 0.3837598 0.46325186 0.58373225 0.60439235 0.48587483 0.47979277 0.5856233 0.47699946 0.510317 0.62459326 0.6526022 0.5020229 0.52917707 -0.08238036 0.60977715 0.626621 0.66672546 0.519449 0.3910755 0.1259136 -0.13743255 0.5974067 0.3968831 0.23890385 0.15810114 0.013285615 0.4702717 0.5137713 0.20263785 0.28744194 0.35496455 0.3270831 0.22913912 0.16946718 0.19665489 0.33575985 0.3180292 0.3460358 0.29031834 0.3154167 0.36934346 0.35270232 0.33426946 0.33184442 0.19799349 0.23546909 0.31035417 0.30536392 0.38906747 0.37883908 0.30443937 0.2818785 0.26647744 0.28594452 0.4204921 0.33256006 0.11860923 0.21955386 0.17080885 0.16288474 0.25543022 0.4013698 0.5345516 0.3326494 0.07625156 0.08992112 0.04641121 0.15619047 0.22119018 0.4217996 0.5902089 0.30484927 0.13770196 0.094613545 0.22071372 0.07850148 0.08297387 0.112633035 0.07928969 -0.046802536 -0.16654505 0.14088656 0.13046066 0.106934115 0.09869124 0.11275483 -0.20967549 -0.13640735 0.24922585 0.40996405 0.5989925 0.47651583 -0.15286335 0.48823935 0.5420153 0.61155164 0.5436064 -0.13093036 0.5326202 -0.08322162 -0.11119921 0.53335285 0.49656633 0.5070202 0.19706202 -0.07834522 0.09221542 0.17762032 0.36549562 0.34010684 0.38417003 0.20014343 0.13185775 0.34018123 0.2143344 0.35414916 0.42304242 0.42541584 0.4258374 0.39682874 0.30670193 -0.0044128895 0.14320043 0.18477286 0.7521074 0.8009483 0.7978035 0.43988523 0.43334806 0.444834 0.38107616 -6.747246e-05 0.74449223 0.78953665 0.7627138 0.49629495 0.5205333 0.47199363 0.74699724 0.6950686 0.5421536 0.338697 0.4189248 0.644466 0.48426887 0.50658303 0.404159 0.43888488 0.2377227 0.21362728 0.42565516 0.4090829 -0.13171819 0.14222452 0.12816711 0.45416442 0.4020642 0.30380595 0.17579506 0.09942931 -0.026060745 0.043045 0.1452907 0.0006047413 0.58450407 0.5087242 0.42778692 0.31705716 0.2415477 0.23359361 0.44052926 0.46543092 0.20698008 0.18847406 0.21045588 0.29951358 -0.025742874 0.046052754 0.17219043 0.09768836 0.6066989 0.5915819 0.48091084 0.25795612 0.19618922 0.12180619 0.20100382 0.25060993 0.34907883 0.25612855 0.264995 0.27437666 0.22818038 0.09841984 -0.0429435 -0.017713577 0.072398886 0.17433855 0.18417913 0.13754404 0.09283607 0.59975886 0.6050371 0.119627915 0.036911394 0.07221455 0.14002934 0.107604966 0.29550385 0.18383592 0.1683315 0.0075440407 0.030216008 0.122229174 0.12499897 0.5304241 -0.078224614 0.03278922 -0.07681751 -0.028596696 0.14679934 -0.09356235 -0.039866716 0.0646589 0.013140008 0.42424607 0.4844698 0.058823515 -0.08241333 -0.26320654 0.1496644 0.20907654 -0.14309865 0.53164065 0.11719955 -0.08386451 0.059962437 -0.050184086 0.5580878 0.5219944 0.064867556 0.01663788 -0.10267624 0.3780472 0.4948588 0.49549833 -0.06314146 -0.20301372 -0.55997384 0.491231 0.47304195 0.49158686 0.45830494 0.4374516 -0.0046102367 -0.10886443 -0.22174053 0.4079226 0.4131189 0.31611523 0.050929278 0.13641359 0.124244735 0.31726572 0.44586122 0.5975499 0.48121306 0.89175224 0.8615341 0.7816293 0.6512008 0.5385443 0.5115285 0.8796798 0.8977858 0.87397015 0.78611016 0.63015294 0.46906018 0.49496517 0.56325877 0.568648 0.55317295 0.89436615 0.88047576 0.80084896 0.63877654 0.6060523 0.5701308 0.55621433 0.54588693 0.5116737 0.57504123 0.5813781 0.5700071 0.5512911 0.5342574 0.37927467 0.389554 0.37940404 0.3671597 0.32165754 0.34836274 0.28286207 0.2506983 0.2094191 0.42364988 0.49336585 0.46305275 0.5160611 0.53790826 -0.10753359 0.56047094 0.10126817 0.102663115 0.057770398 0.5650275 0.5423875 0.20178926 0.15994573 0.52725416 0.5170786 0.36798057 0.46642837 0.3321029 0.19649571 0.13847557 0.2155415 0.2026552 0.4891203 0.26603055 0.39597112 -0.2301428 0.37463602 0.20283358 -0.09013612 -0.10560312 -0.05698116 0.28864726 0.3960531 0.2321557 0.2155334 0.45498657 0.16736324 0.31480563 0.60629165 0.18324482 0.08409229 0.37458408 0.6705655 0.6638522 0.36852807 0.5824077 0.6121588 0.49221742 0.4509434 0.7214955 0.44021904 0.5945481 0.4889497 0.45158184 0.508343 0.6261918 0.6691388 0.7186699 0.47978556 0.5647456 0.4644248 0.61286134 0.47549015 0.2795426 0.20196256 0.4119351 0.45117056 0.33639368 0.3383306 0.19137087 0.23555103 0.2963291 0.14028051 0.20041856 0.29870594 0.17256063 0.26656377 0.3374055 0.21812846 0.13587183 0.123952575 0.057944372 0.23670262 0.27350804 0.29126418 0.3895859 0.24317001 -0.08466141 0.26985678 0.19994152 0.4561721 0.45101008 0.19863114 -0.069648825 -0.067315966 0.2054119 0.064215116 0.056251645 0.10228137 0.660769 0.28414345 0.18223137 0.0054615512 0.038400494 0.09969969 0.0643599 0.083964445 0.22277845 0.38107046 0.6560567 0.7158618 0.24936111 0.1241711 0.276221 0.44938505 0.6203294 0.7095869 0.03135913 0.10588632 -0.00072193705 -0.064355895 0.12704742 0.022346381 0.02259484 0.03298179 0.029728137 0.3190217 0.19286048 0.055274244 0.40154797 0.16410436 0.38037363 0.4322999 0.5205167 0.5472449 -0.19829693 0.42491722 0.43045858 0.568139 0.6181561 0.4546049 0.43421125 0.58634377 0.62792194 0.5087292 0.3949173 0.33639112 0.35497695 -0.107844174 0.3792976 0.5780509 0.04456635 0.10950369 -0.20869018 0.39671952 0.42033678 0.63078135 0.37427956 0.11230635 -0.088639654 -0.2123441 0.3739779 0.37294412 0.379738 0.3825433 0.29802915 0.18883927 -0.13567582 0.20437002 0.2722723 0.32677084 0.73128384 0.71424234 0.29736283 -0.14169121 0.263166 0.06456653 0.1448395 0.6004045 0.6589036 0.66761684 0.6515 0.32643285 0.2710918 0.6151134 0.5720984 0.35283703 -0.050326027 -0.09372968 0.041956555 0.5244733 0.20250797 0.29865885 0.3059813 0.25658667 0.31658107 0.21070918 -0.018990418 0.19274704 0.3290248 0.34481353 0.5176004 0.45858726 0.32268816 0.23809236 0.24686362 0.2913794 0.38848338 0.35619026 0.0042265877 0.12630366 0.3368888 0.38744825 0.5432884 0.5744499 0.387326 0.12532175 0.137549 0.15437526 0.20346044 0.3443118 0.3920772 0.56288505 0.5954063 0.22827157 -0.002833441 0.16579193 0.5628493 0.57196355 -0.12664491 0.22424789 -0.060471136 0.029475957 0.041859597 0.50544244 0.37221053 -0.09281738 -0.09752424 -0.29789367 -0.13084918 0.07302661 -0.19460526 -0.10747942 0.28088537 -0.17247267 -0.33083612 -0.2402896 -0.23512 -0.06381361 0.07633387 0.37309292 -0.31536168 -0.42046112 0.43603322 -0.15943328 0.33808407 0.4071924 0.23885876 0.32090083 0.38681144 0.40324017 0.38474214 0.26804253 0.3396155 0.117137 0.14195412 0.39382988 0.8285171 0.86878395 0.71908265 0.5525003 0.56402546 0.129998