# vtk DataFile Version 2.0
Really cool data
ASCII
DATASET POLYDATA
POINTS 12619 float
-25.591347 -12.957623 -56.44953
-25.706463 -12.128377 -57.017532
-25.706257 -12.372454 -56.608932
-25.62243 -12.258802 -55.743748
-25.62549 -11.705074 -57.10595
-25.66065 -11.559734 -56.529926
-25.648685 -11.712438 -55.95135
-25.585176 -11.1967125 -56.71876
-24.782818 -14.899696 -58.901802
-24.797821 -15.189974 -58.394775
-24.713491 -15.262713 -57.65654
-24.654024 -15.401374 -57.0554
-24.684746 -14.3784 -59.230423
-25.092104 -14.270846 -58.403343
-25.263453 -14.065652 -57.573196
-25.08944 -14.087298 -56.258835
-24.991669 -14.029264 -55.695435
-24.704819 -13.913718 -55.0367
-24.86014 -13.230564 -59.07339
-25.27086 -13.501604 -58.358177
-25.459421 -13.466917 -57.623222
-25.387495 -13.376733 -56.57566
-25.386827 -13.256455 -55.767696
-25.019411 -13.148802 -54.91979
-24.956417 -12.560202 -58.7333
-25.21747 -12.611353 -58.245827
-25.447815 -12.313629 -57.475784
-25.485338 -12.151353 -55.375854
-25.019474 -12.632139 -54.802288
-25.146418 -11.793682 -57.914608
-25.395012 -11.430196 -57.33238
-25.543982 -11.284534 -56.208103
-25.45438 -11.523902 -55.58978
-25.13731 -11.606406 -55.053406
-25.194876 -11.024605 -57.1279
-25.294067 -10.976949 -56.516613
-25.145638 -11.016605 -55.70048
-24.876389 -11.090803 -55.155693
-24.583185 6.6628013 -62.35316
-24.566196 6.6578007 -61.83947
-24.574373 7.115518 -62.3648
-24.5618 7.086214 -61.7687
-23.96945 -15.928767 -59.243332
-24.061644 -16.12402 -58.47434
-24.126717 -16.174074 -57.693977
-23.998108 -16.057718 -57.12836
-24.002708 -15.370362 -59.776684
-24.358067 -15.306076 -59.398857
-24.513464 -15.558885 -58.710938
-24.453737 -15.697242 -57.558674
-24.078506 -15.170848 -55.529987
-23.972343 -14.80881 -53.639103
-23.754116 -14.878541 -52.761993
-24.229555 -14.55727 -59.74881
-24.589405 -14.457006 -59.431194
-24.580517 -14.331536 -55.244995
-24.471684 -14.406958 -54.966137
-23.92875 -14.621886 -53.114105
-23.849047 -14.51369 -52.697124
-23.668482 -14.373616 -52.204777
-24.27188 -13.847135 -59.72202
-24.462751 -13.378621 -59.428066
-24.300617 -13.749731 -53.834114
-24.029922 -13.878697 -52.783077
-23.626408 -13.818366 -52.178192
-23.958712 -12.814292 -59.58102
-24.447151 -12.782265 -59.286793
-24.16696 -12.75204 -54.075294
-24.286493 -12.011774 -58.80205
-24.558783 -11.750166 -58.32493
-24.636198 -11.49073 -54.68785
-24.033335 -11.771849 -54.364388
-24.4146 -11.161394 -57.751835
-24.58691 -10.8341055 -57.234905
-24.451876 -10.595628 -56.51135
-24.583004 -10.686541 -55.68173
-24.47276 -11.057816 -54.96941
-23.599161 -5.098193 -38.321392
-23.583292 -5.0868387 -37.87552
-23.56191 -4.439953 -38.80669
-23.666473 -4.4705544 -38.421715
-23.63784 -4.514026 -37.83376
-23.609478 -3.8719041 -38.46207
-23.588533 -3.8944037 -37.955498
-23.740503 6.2963266 -63.898964
-23.982159 6.0724597 -63.298336
-24.12577 5.8316746 -62.28698
-24.155512 5.924221 -61.67195
-24.00719 6.0430284 -61.20508
-23.885777 6.7689376 -64.244446
-24.272928 6.662717 -63.33915
-24.455713 6.455457 -62.662
-24.428074 6.4687233 -61.563614
-24.09115 6.590891 -60.985855
-23.69127 7.410733 -64.73181
-23.885424 7.466554 -64.4368
-24.246115 7.379554 -63.548477
-24.45529 7.368608 -62.613518
-24.40456 7.2600284 -61.598682
-23.94382 7.190874 -60.853527
-23.827513 7.950002 -64.18864
-23.937654 8.051793 -63.525635
-24.17061 7.850653 -62.634678
-23.995195 7.926846 -61.691265
-23.757357 7.8490767 -60.83383
-23.446507 -16.53685 -58.09316
-23.21333 -16.551699 -57.762836
-23.321684 -15.769485 -59.851612
-23.579313 -16.220087 -59.12165
-23.597351 -16.351906 -58.66364
-23.476046 -16.422308 -57.45678
-23.454664 -16.051556 -56.687172
-23.46788 -15.610287 -55.605293
-23.270233 -15.623599 -54.993923
-22.945936 -15.8316965 -52.24068
-22.902414 -15.746793 -51.60599
-22.643215 -15.759194 -51.137897
-23.516415 -15.32276 -60.06408
-23.622667 -15.464994 -55.583466
-23.660154 -15.231275 -54.457592
-23.341461 -15.375817 -53.49572
-23.249952 -15.491669 -52.48061
-23.119944 -15.318669 -51.57263
-22.76813 -15.437276 -51.073246
-23.351755 -14.642245 -60.28058
-23.425262 -14.51705 -51.801086
-22.938705 -14.7719145 -51.070324
-23.022516 -13.778081 -60.332123
-23.420422 -13.548058 -52.075127
-22.99143 -12.903688 -59.883755
-23.712795 -12.353081 -59.171963
-23.224174 -12.921615 -52.56533
-22.85557 -11.904478 -46.50333
-22.688942 -12.02536 -45.73896
-23.238443 -11.952821 -58.992474
-23.713219 -11.64912 -58.376926
-23.31389 -11.504933 -54.749302
-23.520668 -11.906343 -54.187084
-22.783533 -11.29926 -47.18072
-22.929895 -11.552366 -46.398903
-22.805738 -11.490776 -45.713123
-22.614357 -11.389258 -44.958492
-24.072838 -10.974337 -57.4422
-23.926064 -10.636235 -56.17617
-23.90398 -10.728198 -55.665054
-23.939451 -11.059497 -54.91786
-22.74695 -10.859973 -47.108074
-22.85746 -10.710707 -46.36051
-22.71383 -10.636719 -45.665565
-22.573513 -10.764882 -45.18052
-22.71681 -10.206984 -46.59506
-23.099873 -5.955021 -38.351105
-23.084614 -5.987398 -37.850845
-23.162275 -5.315979 -39.082912
-23.429893 -5.424272 -38.46007
-23.393969 -5.3457313 -37.63026
-23.138355 -5.2233834 -37.152733
-22.806 -4.366857 -39.702477
-23.338623 -4.4710393 -39.171463
-23.460625 -4.4926596 -37.438465
-23.152246 -4.498686 -36.971558
-22.623417 -3.9002469 -29.82002
-22.597528 -4.2428656 -29.625267
-22.703356 -4.24728 -28.658968
-22.853231 -4.2611446 -27.383936
-22.73303 -4.0872097 -26.597382
-23.208696 -3.7420566 -39.116684
-23.403923 -3.5083969 -38.507652
-23.375055 -3.6514013 -37.716434
-22.904087 -3.840661 -36.941605
-22.790995 -3.33992 -29.96596
-23.033981 -3.2231998 -29.328856
-23.088531 -3.5597887 -28.583742
-23.209866 -3.3285043 -27.554655
-22.993458 -3.5230935 -26.810581
-22.678938 -3.4797788 -26.112375
-22.994146 -3.2722406 -39.025803
-23.070223 -3.1580753 -38.40309
-22.959972 -3.1301935 -37.82502
-22.883173 -2.303054 -29.901127
-23.105509 -2.5585678 -29.298218
-23.33903 -2.5655844 -28.291462
-23.333138 -2.4259021 -27.650703
-23.006224 -2.5389466 -26.811602
-22.699894 -2.8477292 -26.22159
-22.67097 -2.0489528 -30.099615
-22.9151 -1.8589675 -29.28568
-23.171799 -1.7484401 -28.417164
-23.133974 -1.6661525 -27.619709
-22.991661 -1.8300263 -27.072186
-22.721008 -1.2916601 -28.93532
-22.719685 -1.0656443 -28.23224
-22.88018 -1.2003394 -27.712505
-23.337812 5.3513412 -62.30069
-23.371105 5.3517456 -61.792248
-23.189867 6.0772634 -64.19861
-23.349012 5.8015833 -63.50107
-23.597214 5.5148044 -62.549923
-23.672747 5.556636 -61.622513
-23.145653 5.751426 -60.767075
-23.336573 6.8701406 -64.86501
-23.507286 6.603098 -64.54906
-23.491581 6.836554 -60.36767
-22.969812 6.6468234 -59.74301
-23.415703 7.5253043 -64.91299
-23.526073 7.3821244 -60.409393
-23.158184 7.5719457 -59.669983
-22.737122 7.8942184 -59.034775
-23.2953 8.05726 -64.78077
-23.350077 8.266369 -64.43396
-23.419191 8.446961 -63.5936
-23.55667 8.383371 -62.38829
-23.26124 8.382599 -61.536804
-23.34111 8.27892 -60.565453
-22.94763 8.323488 -59.70915
-22.682701 8.073414 -59.010635
-23.054413 8.633645 -64.08503
-23.159834 8.627553 -63.287853
-23.163076 8.725257 -62.612682
-22.817596 9.022833 -61.47773
-22.770336 8.782124 -59.707348
-22.751488 -16.621532 -58.226048
-22.57398 -16.57525 -57.57494
-22.503902 -16.38965 -59.241875
-22.539669 -16.466825 -57.28614
-22.800434 -16.194242 -56.709095
-22.46396 -15.727841 -55.41851
-22.368073 -15.793291 -54.104824
-22.074121 -15.975734 -53.502926
-22.306732 -16.189457 -52.55678
-22.435495 -16.149412 -51.663563
-22.206371 -16.036892 -50.840126
-21.785698 -16.063398 -50.143772
-22.698948 -14.977827 -60.29585
-22.407475 -15.536057 -50.711727
-22.02534 -15.543217 -50.2234
-22.156944 -14.173299 -60.789368
-22.587683 -14.758344 -50.81811
-21.965649 -14.235203 -50.262478
-21.979324 -13.922692 -61.03371
-22.52528 -13.611546 -51.42284
-22.062307 -12.845753 -46.139736
-22.035843 -12.885884 -45.45213
-21.9009 -12.807874 -44.27041
-22.473602 -13.098194 -60.381874
-22.709402 -12.741547 -52.47445
-21.855099 -12.224771 -48.548405
-22.323135 -12.253273 -47.205173
-22.42864 -12.32557 -46.32271
-22.391111 -12.330733 -45.314747
-22.223953 -12.311961 -44.63835
-21.927977 -12.407826 -43.976017
-21.736975 -12.070382 -38.098408
-21.765789 -12.366239 -37.481075
-21.746235 -12.310642 -36.860355
-22.179455 -11.744036 -58.566616
-22.20272 -12.020922 -52.90259
-22.116997 -11.348346 -48.118896
-22.322687 -11.59865 -44.546734
-21.987133 -11.681817 -43.892956
-21.796751 -11.705377 -38.171253
-21.935795 -11.697102 -37.59521
-21.855593 -11.5324335 -36.42092
-21.639675 -11.788836 -36.141785
-22.780222 -11.231204 -57.165997
-22.021318 -10.796645 -47.822525
-22.42059 -10.568716 -47.35178
-22.493105 -10.3145485 -45.507275
-22.327374 -10.534617 -44.870026
-21.70803 -10.484898 -43.906303
-21.954527 -10.796903 -37.37832
-21.950718 -10.629888 -36.82611
-21.775581 -10.648589 -35.867626
-22.271729 -9.955609 -46.96519
-22.450386 -10.004939 -46.50765
-22.157495 -9.656198 -45.618908
-21.924562 -9.786665 -44.94534
-21.762009 -9.956235 -36.558674
-21.675627 -10.02112 -35.922874
-21.834383 -9.156739 -46.16614
-21.82972 -9.165906 -45.84555
-21.730658 -6.67103 -39.115208
-21.77878 -5.9026628 -40.026726
-22.327099 -6.1368876 -39.317383
-22.62069 -6.1844482 -37.76951
-22.171906 -6.0154014 -37.12763
-21.70529 -5.685896 -28.266134
-22.08644 -5.4169326 -39.983738
-22.624966 -5.4816937 -39.396297
-22.255709 -5.293155 -36.6443
-22.259035 -5.0247054 -36.392136
-21.88437 -5.090881 -30.457638
-22.345762 -4.846064 -29.588923
-22.337433 -5.1474204 -28.28819
-22.39126 -4.8902225 -27.477777
-22.082966 -4.941833 -26.731773
-21.914318 -4.801591 -26.278503
-22.428402 -4.3321867 -39.92619
-22.435143 -4.362347 -36.489162
-21.680717 -4.197986 -31.133793
-22.003471 -4.484962 -30.560074
-22.429905 -4.4900475 -29.629889
-22.450106 -4.6738844 -27.660408
-22.476866 -4.455014 -26.485691
-22.182405 -4.0867367 -25.88666
-22.226519 -3.7078032 -39.8492
-22.511095 -3.4850373 -39.535423
-22.407452 -3.7995877 -36.643757
-22.111742 -4.001166 -36.423527
-21.801912 -3.4426596 -31.026579
[...]
POINT_DATA 12619
SCALARS features_00 float 1
LOOKUP_TABLE default
0.5846933 0.65966296 0.6428939 0.6606394 0.69023013 0.71396494 0.7127988 0.7283615 0.5945806 0.6022464 0.56959265 0.48817468 0.5717243 0.5745656 0.5542178 0.43839753 0.4150718 0.38142785 0.5445634 0.577615 0.57935846 0.53608096 0.5260263 0.48991042 0.5554589 0.5970522 0.64422774 0.67647195 0.5946872 0.64703363 0.6996815 0.74145436 0.73739994 0.72124004 0.7295571 0.7577905 0.7657684 0.73829484 0.770843 0.7340541 0.74769735 0.70111907 0.61856973 0.60832614 0.5438354 0.45760345 0.58224416 0.60349977 0.6175539 0.55336285 0.3123486 0.35085714 0.42015 0.54486775 0.56713885 0.3493182 0.32685462 0.39688554 0.42636964 0.44680408 0.50720936 0.5110229 0.3497854 0.4039882 0.43965402 0.4544025 0.4968667 0.49175096 0.5012834 0.56880903 0.6780529 0.5776566 0.6279304 0.7259218 0.79205644 0.76219743 0.70065165 0.8127393 0.8211889 0.82674456 0.83846664 0.8466934 0.85799354 0.872205 0.7397294 0.76371485 0.7552297 0.73434997 0.6948881 0.7828637 0.8048618 0.78807545 0.71974516 0.6502322 0.7927066 0.806708 0.8050342 0.7449297 0.6701138 0.58656335 0.7725279 0.7267422 0.68836373 0.6073519 0.5335836 0.52781755 0.46097046 0.5542663 0.60838 0.5942119 0.4493506 0.35832587 0.27283984 0.21664768 0.43516934 0.41870588 0.38923615 0.5297446 0.28575644 0.27343205 0.35872614 0.4373856 0.42951775 0.39340034 0.46010038 0.44576475 0.39893374 0.3963436 0.43399885 0.3859443 0.43595114 0.3038238 0.5720951 0.533853 0.36474955 0.44975418 0.4740513 0.42095697 0.593425 0.612206 0.5873736 0.53927314 0.63806975 0.76399267 0.71106064 0.63874584 0.5871108 0.6112379 0.57855684 0.54537755 0.5597997 0.7491172 0.7762724 0.754866 0.7892096 0.8142637 0.8313375 0.70428133 0.80221856 0.85900307 0.871341 0.4467256 0.43494537 0.49304414 0.6165701 0.68231785 0.80276704 0.8587436 0.8883555 0.89068186 0.4799695 0.51753247 0.55300474 0.6751152 0.68877447 0.7037416 0.7878895 0.84750044 0.87499243 0.5296968 0.55852985 0.6434773 0.6838794 0.6730199 0.6727622 0.5143689 0.54967123 0.6010523 0.6513451 0.650785 0.5242858 0.5448688 0.60539305 0.59008765 0.5884223 0.63143986 0.6433617 0.67089474 0.6662691 0.5739239 0.7315181 0.7265392 0.5065323 0.38884923 0.7726615 0.4905001 0.3846522 0.33958414 0.73880357 0.7122939 0.63052166 0.55420315 0.5005767 0.46761882 0.38742965 0.3366573 0.6136816 0.54447126 0.483625 0.42002112 0.3810582 0.45780522 0.35289776 0.5304426 0.31414223 0.29366934 0.15275115 0.19506675 0.2641271 0.39086792 0.3919934 0.35441568 0.30467194 0.3986525 0.35426587 0.28878757 0.30135334 0.3631383 0.23448533 0.2699745 0.4080972 0.3558877 0.3656501 0.36186144 0.31426322 0.19791849 0.33505222 0.4716074 0.4739855 0.4719111 0.44863784 0.38805538 0.51466984 0.5458395 0.55866146 0.12087604 -0.007942513 0.47393614 0.49671832 0.4316934 0.53274405 0.5879392 0.54806066 0.4901088 0.42237514 0.46534568 0.52785534 0.5347343 0.49680862 0.38011333 0.6183921 0.59677434 0.49492267 0.4937576 0.5267264 0.46189395 0.42289534 0.55678743 0.4947142 0.40188968 0.39823252 0.38959894 0.43674216 0.5453927 0.754857 0.74681765 0.47291225 0.5817147 0.6662642 0.74144703 0.72296077 0.38343257 0.4027695 0.48854828 0.57310057 0.62506527 0.6668577 0.63697565 0.7884789 0.403548 0.3995914 0.41953886 0.5667212 0.6727052 0.71461785 0.6021557 0.67216074 0.82097876 0.73769164 0.4398929 0.70807254 0.58880204 0.6920376 0.7841341 0.8270614 0.8603828 0.4790616 0.4991346 0.6166059 0.6670936 0.47763294 0.5591503 0.4256915 0.4442369 0.47985935 0.54377115 0.38763404 0.3879578 0.33447552 0.2784904 0.4267491 0.5369093 0.48413718 0.34230253 0.33360907 0.3711455 0.677187 0.33123767 0.35909903 0.70265067 0.33290344 0.3560903 0.36738718 0.6383883 0.5861202 0.29732674 0.2849747 0.4329651 0.4845725 0.363823 0.3604529 0.37700242 0.36536965 0.28568202 0.3611642 0.1652039 0.3214265 0.36314362 0.3860831 0.40860778 0.26557055 0.18437804 0.18225382 0.10503777 -0.010927357 0.22282124 0.3125651 0.32472962 0.32108024 0.3283117 0.35877895 0.3695249 0.4049536 0.2349271 0.2709252 0.26816517 0.1904754 0.24617194 0.28688836 0.36621824 0.21016549 -0.10278903 0.11535576 0.16008922 -0.08826255 0.18972257 0.22373234 0.19483425 0.26422668 0.45105624 0.48370397 0.504385 0.2525121 0.28776607 0.49544692 0.29117942 0.18135425 0.13291305 0.36208808 0.46906978 0.51677984 0.52247876 0.1863891 0.23647842 0.43805027 0.60572124 0.59597117 0.473649 0.3193545 0.26273924 -0.15196335 -0.073687956 -0.09521864 -0.0322469 0.31296545 0.38385862 0.43083125 0.2994934 0.48870826 0.563043 0.56650054 0.46420395 0.35200468 0.26860934 0.13229433 -0.17619407 0.12266471 0.025979444 -0.07389377 -0.10297338 -0.104112715 -0.087623894 -0.07684421 0.30342025 0.1947151 0.22823554 0.50934875 0.44607964 0.3514138 0.5141478 0.49283773 0.461748 0.3811134 0.17138368 0.20440643 0.36809993 0.3511634 0.3314711 0.14401595 0.14832096 0.42141715 0.48013115 0.39543048 0.242441 0.30233434 0.2710159 0.32295963 0.19651781 0.09156761 0.487638 0.46735448 0.30496672 0.29760942 0.36782628 0.5276921 0.45899594 0.43781224 0.3011765 0.3500397 0.6129293 0.66948354 0.52223885 0.52094656 0.3799892 0.71819323 0.43142188 0.47136518 0.605715 0.4168018 0.68486685 0.69140756 0.49102557 0.53175724 0.6669326 0.7683152 0.35939646 0.6223357 0.4155619 0.44482982 0.51897156 0.36632326 0.5651591 0.2964419 0.44463313 0.49013177 0.63948995 0.4102353 0.49693373 0.5529014 0.6426394 0.6874893 0.5653319 0.57015073 0.3791417 0.497375 0.5321417 0.5201659 0.48214477 0.34549403 0.32073516 0.22657613 0.19802837 0.21055414 0.365482 0.48844132 0.4682234 0.41403693 0.49741945 0.44269252 0.42815515 0.27463245 0.39041358 0.38511765 0.5020428 0.5487879 0.3836776 0.4950486 0.5413036 0.33183372 0.35873556 0.5082033 0.2650062 0.2962514 0.344165 0.20007198 0.22289595 0.20400023 0.24617796 0.31618476 0.18338029 0.55837345 0.5366832 0.4732966 0.59876704 0.5810907 0.52937484 0.428353 0.6133741 0.6022146 0.55326736 0.48866785 0.4020945 0.44624352 0.47637838 0.16575617 0.14090896 0.25248852 0.34609097 0.40224487 0.4657458 0.4335509 0.48336685 0.49214467 0.52685356 0.3806151 0.07538688 0.08333571 0.023157047 0.31918845 0.38110974 0.43420422 0.44979915 0.42840677 0.048246413 -0.021187581 0.12653077 0.3777004 0.3191498 0.4334783 0.45792916 -0.09272902 0.16969231 0.1772948 0.116711326 0.4025287 0.42025417 0.40930387 0.4418528 0.56742275 0.5597621 0.517316 0.12053385 0.1646092 0.114731796 0.15981722 0.18639846 0.3525713 0.35605025 0.4171204 0.3042627 0.30603305 0.30485517 0.35848996 0.5033275 0.5623851 0.57547426 0.54407775 0.46657306 0.12243475 0.12795873 0.2519161 0.2112939 0.2623167 0.3372169 0.4151835 0.503108 0.52191234 0.5334736 0.5477766 0.58948815 0.19515444 0.08143471 0.1293441 0.10586481 0.18802375 0.28669825 0.39608577 0.48971868 0.4964373 0.47683826 0.5213079 0.54701686 0.3294657 0.20980744 0.15213221 -0.060861014 -0.052933484 -0.07451267 -0.025700837 0.37537986 0.44032854 0.4581278 0.43903652 0.42084798 0.49751225 0.47015363 0.39160162 0.33770815 0.26933354 0.051071778 -0.05909972 0.08205823 0.20321219 0.2365784 0.11793008 0.014081782 -0.016021239 0.035235077 0.03090487 0.0026506968 -0.020131584 -0.04113319 -0.19991559 -0.22387093 0.13659379 0.24562536 0.36741665 0.3753056 0.38426894 0.39771992 0.40863746 0.35103446 0.17992292 0.21434408 0.057168998 0.12815453 0.12509163 0.101936534 -0.019075528 -0.025174277 0.08494292 0.14171107 0.11678064 -0.1617254 -0.21066329 -0.26972973 0.25415307 0.10666682 0.20429482 0.1517527 0.166068 0.08119404 -0.05604505 -0.121486336 -0.19230479 -0.13140407 0.08370689 0.20262572 0.12226306 0.033708334 0.23196653 0.20165473 0.1498406 0.14055488 0.08948695 -0.022549326 -0.05931077 0.18875352 0.23551491 0.41525564 0.5281808 0.16160367 0.13230489 0.25737897 0.31938252 0.14565328 0.084996805 0.020450592 0.31342253 0.3849042 0.34975442 0.66540897 0.18313912 0.30079687 0.28068185 0.49372536 0.46117377 0.54205537 0.39932388 0.59035486 0.58265626 0.48822245 0.1903598 0.19471371 0.6448786 0.7313888 0.34441346 0.72306377 0.78201914 0.42902893 0.51611865 0.60067356 0.68480694 0.74935174 0.7875918 0.45985788 0.52161694 0.5865176 0.56733114 0.5008682 0.53662074 0.6188905 0.6815864 0.74325716 0.39895633 0.4811942 0.4719956 0.3244057 0.41611934 0.3720503 0.36739498 0.27632666 0.50575125 0.4666896 0.3240438 0.5091448 0.3893519 0.37480962 0.482813 0.33818483 0.36706063 0.28773203 0.22921076 0.29860207 0.28079212 0.16131264 0.11214433 0.111722976 0.09918876 -0.038367063 0.12813361 0.11784993 0.16047928 0.18540587 0.1417869 0.14015609 0.2837988 0.19319153 0.24624208 0.17963706 0.09998736 0.55341077 0.5741456 0.5805838 0.5652181 0.4340362 0.41523242 0.29364508 0.14845362 0.4540856 0.5263666 0.57934344 0.61408436 0.59754145 0.39476943 0.3884436 0.48567012 0.5503136 0.6152165 0.57256424 0.6112468 0.61280996 0.5752835 0.4878406 0.4531562 0.5479001 0.5774993 0.5968638 0.5627377 0.48616046 0.44532093 0.6483632 0.61292446 0.28921336 0.27823353 0.24024233 0.40457785 0.47198856 0.47064424 0.41307998 0.65293396 0.60754704 0.4804132 0.13218327 0.26828557 0.25410354 0.17411175 0.38254434 0.39295393 0.4925962 0.48554242 0.42914733 0.37035906 0.63759005 0.026686503 -0.08049248 -0.050669424 -0.044762604 0.39646554 0.31409964 0.25599176 0.45954752 0.44273424 0.54176974 0.47696304 0.20247063 0.20539874 0.386513 0.42195898 0.4497261 0.4624601 0.38291907 0.37082922 0.14582884 -0.03641814 0.0013122857 0.33636218 0.3737386 0.54629564 0.5192907 -0.09640618 0.024200313 0.12770349 0.05628209 0.36568207 0.41950232 0.52057904 0.54946566 -0.16489206 0.5077702 0.46311873 0.4782855 0.45221087 0.45497584 0.45811754 0.13663864 0.29882777 0.37824714 0.09382196 -0.11441292 0.13048372 0.074310556 0.3605389 0.31589314 0.27220032 0.2007193 0.33252156 0.20086683 0.34031 0.2988143 0.22934675 0.08743083 0.15525371 0.22038822 0.12547481 0.0037415158 0.039303258 -0.21899396 -0.24587116 -0.08973167 0.090942666 0.2936136 0.28994542 0.16309115 0.2055932 0.25931746 0.034672376 0.1408363 0.12488874 0.09801447 -0.018287957 0.12790765 0.21635583 0.071923226 -0.17014402 -0.25346786 -0.08041911 -0.07228332 0.110619344 0.36467144 0.0879576 0.11545128 0.25134444 0.2426042 0.1236656 0.101967454 -0.019811146 -0.093513355 0.3582105 0.40676242 0.4022661 0.21110782 -0.049592443 0.0664488 -0.0921233 0.39400792 0.42255965 0.17499225 0.21780111 0.36655575 0.25740653 0.24757202 0.14801595 0.021186776 -0.10986209 0.19538464 0.29232728 0.29622898 0.28414685 0.22567472 -0.008560643 -0.03489782 0.15642378 0.20305821 0.29330522 0.27733976 0.07180271 0.46299174 0.66907257 0.05458951 0.800481 0.14020622 0.2645481 0.8590018 0.5069492 0.43107638 0.3172098 0.43039113 0.79774433 0.838904 0.42305213 0.47312975 0.5257603 0.472965 0.35979542 0.5241889 0.5640315 0.68555164 0.7740756 0.30849597 0.09924038 0.4645771 0.35780197 0.10450462 0.2407538 0.095811024 0.23348987 0.24195775 0.5129577 0.4475546 0.24997622 0.22549966 0.013470732 0.1944246 0.14370741 0.20811217 0.4695006 0.5087667 0.59877646 0.73211455 0.7338799 0.79520863 0.40703285 0.1489029 0.6760924 0.741928 0.8766576 0.9011009 0.85950214 0.36816067 0.3732131 0.29782203 0.046329595 0.74524045 0.79747045 0.9474522 0.98602784 0.9051915 0.24885297 0.16009894 -0.012096748 -0.05764066 -0.002960667 0.82424355 0.92013335 0.9734751 0.92189705 -0.16554573 -0.20590284 0.09396505 0.10396235 -0.106971025 0.13043413 0.1507683 0.51125497 0.28098 -0.01571732 0.52149135 0.58878434 0.62192786 0.45718133 0.107193545 0.3216049 0.6694472 0.71759325 0.6957433 0.68944895 0.5590763 0.11777833 0.335375 0.56067264 0.64499897 0.6961005 0.7030576 0.69387084 0.49475405 0.3681516 0.2792967 0.20453592 0.44153693 0.50392336 0.5981445 0.6626333 0.4988041 0.50077736 0.4042951 0.28694233 0.37783062 0.43733954 0.49426123 0.5206468 0.46443546 0.39729393 0.3128446 0.31071615 0.624511 0.6396501 0.59291136 0.48822823 0.19019067 0.2799684 0.2992255 0.27085942 0.2360372 0.23885265 0.24651714 0.43199903 0.49257183 0.47962397 0.40169343 0.47588363 0.6388337 0.18764731 0.02143285 -0.0021135733 0.017462745 -0.0054298416 0.11945955 0.24525812 0.20978078 0.29159606 0.33541667 0.39743316 0.39908108 0.38810796 0.6319808 0.3093845 0.25459257 0.28687656 0.26704895 0.4628691 0.44813558 0.40880275 0.6152204 0.035781063 0.16419013 0.3556887 0.41226876 0.3599987 -0.14678659 0.211487 0.505601 0.49564683 0.22802016 0.48729444 0.39705706 0.3221548 0.40781567 0.29546928 0.30800578 0.2742738 0.24686208 0.59961176 0.42814612 0.27247757 0.1968 0.015262727 -0.1927392 0.050837558 -0.36875153 0.25539544 0.6295942 0.489601 0.36963114 0.17318307 0.096185625 0.13410576 0.06728531 -0.06554776 0.124942504 -0.21860105 -0.09953453 0.58537745 0.5152215 0.3205341 0.21545719 0.17904824 0.3097334 0.09423988 0.017854039 -0.046085708 -0.045189627 0.16391303 -0.20438659 0.10557238 0.39914125 0.32876012 0.40358174 0.39595938 0.31818938 0.15961981 0.1727858 0.19053115 0.11809203 0.039639473 -0.22261354 -0.36854884 0.39446402 0.41970277 0.4246523 0.36844692 0.25565377 0.25735784 0.37470934 -0.26039612 -0.08438102 0.37789324 0.40344056 0.40461758 0.32590708 0.2519662 0.38131136 0.43657333 0.2480256 0.27381378 0.093328014 0.36853388 0.33816054 0.43046618 0.4643026 0.41736603 0.2928892 0.2989943 0.17802511 -0.11415931 -0.05412114 0.040831216 0.04818066 0.006946072 -0.014017984 0.08518922 0.43201947 0.44391656 0.4099329 0.27846754 0.2938839 0.25589508 0.2006744 0.011523096 0.05403015 0.026185647 0.38775465 0.57101095 0.25884557 0.25503868 0.20720509 0.07337081 0.060047366 0.8301134 0.101576895 0.10442911 0.89606607 0.41170323 0.3909755 0.31556398 0.27072966 0.26640028 0.32352406 0.37217444 0.44064432 0.4957704 0.8458711 0.8914276 0.36496666 0.38506874 0.3777822 0.2894555 0.21474445 0.26921898 0.29144287 0.614879 0.69584465 0.7969003 0.26509488 0.131421 0.20879748 0.24622971 0.26042932 0.26341385 0.21299821 0.091057114 -0.066906154 0.054511704 0.18538743 0.20342651 0.23802902 0.24402002 0.20310283 0.17360467 0.1475833 0.21547733 0.23661692 0.22629541 0.2039264 0.30333218 0.3696887 0.21936703 0.22596501 0.1901511 0.56805485 0.66145194 0.341536 -0.15953185 0.051291704 0.21151039 0.22584115 0.574474 0.78268033 0.681345 0.30217382 0.29325405 -0.17432925 0.709191 0.8074175 0.71678436 0.23445404 0.19581667 -0.067806184 0.77413857 0.81754553 0.8452239 0.8514897 0.79846144 0.14509793 0.08971594 0.79760396 0.78192306 0.8069391 -0.09459528 0.12644294 0.25065345 0.39629552 0.35182795 0.24391721 0.6843569 0.71554494 0.7276596 0.71966136 0.31575334 0.35278773 0.70860195 0.6826333 0.724344 0.71934175 0.72755337 0.69488937 0.6918567 0.7150212 0.40571016 0.70138407 0.6760981 0.7501768 0.74078166 0.71547246 0.68562114 0.67889786 0.6980112 0.3924221 0.43078554 0.66106755 0.6465627 0.72802114 0.69857126 0.68158805 0.6779155 0.38750637 0.30572078 0.15646958 0.30221197 0.43736488 0.4829985 0.6833576 0.67626214 0.6618501 0.13470763 0.3590598 0.3685926 0.314098 0.12169157 -0.0225251 0.3296908 0.40539607 0.4387206 0.4001429 0.47211474 0.5188674 0.88624334 0.25841644 0.30383772 0.30473334 0.6580453 0.5937164 0.5907206 0.18825862 0.21993794 0.28635302 0.1569161 0.22295098 0.3007986 0.42920327 0.45303583 0.42426464 0.34105474 0.43129402 0.58011854 0.60867155 0.6079813 0.60139066 0.026145488 0.026630506 0.050328463 0.057270102 0.07733371 0.14147502 0.267393 0.30752584 0.4175754 0.47458863 0.510319 0.5420052 0.5925095 0.42775333 0.30142376 0.41809386 0.44972903 0.41155776 0.38913146 0.41296652 0.44316113 0.47237667 0.15390398 0.04146479 0.33013582 0.18981434 0.33763075 0.4023575 0.4382325 0.4185441 0.36289445 -0.08038153 0.3046875 0.30624261 0.46597767 0.4601708 0.45873883 0.20713991 0.39512575 0.11620441 0.35563502 0.30592722 0.12224712 0.0890958 0.40984285 0.211992 0.586653 0.16414814 0.6784994 -0.19952449 -0.12716372 -0.35402337 0.058351286 0.46143076 0.5003114 0.6267029 0.6038204 0.51212496 0.12747113 0.245502 0.15294045 0.110867396 0.14702323 0.17114362 -0.088192865 -0.018555105 -0.29828635 -0.1815471 -0.10247701 0.56656283 0.49590164 0.2958491 0.21616782 0.068917766 0.15363863 0.27152354 0.3052649 0.21042787 0.15291306 0.28110963 0.084992304 0.006726701 0.04343161 0.19870318 0.09033619 0.028893884 0.051899157 0.03332436 -0.10438339 0.13760652 0.19273564 0.30068153 0.33863944 0.14770573 0.29732722 0.18259773 0.34533748 -0.041182503 -0.07626858 -0.382023 0.33648437 0.16776794 0.30869156 0.09678943 0.20289412 0.39796585 0.3019293 0.12035275 -0.12463234 -0.06708138 -0.2688658 0.16973527 0.2018766 0.30132812 0.29063892 0.32703537 0.36964744 0.30702287 0.22930296 -0.0055984706 -0.05398528 0.7885526 0.75695896 0.27857882 0.40604743 0.35139883 0.22600207 0.21635091 0.0071252435 -0.08665024 0.030242253 -0.0052533746 0.1091078 0.7561759 0.7865418 0.7609161 0.6396521 0.21938771 0.27811933 0.30718595 0.20227394 0.22719747 0.20418262 0.06617174 -0.025355887 -0.018226132 0.079170436 0.13758081 0.022702033 -0.01259898 0.12770483 0.11659711 0.7785026 0.722025 0.7531316 0.7253847 -0.024522923 0.17435518 0.14042315 0.17846583 0.16444887 0.025950387 0.13044581 0.16943216 0.18170276 0.21654837 0.21590972 0.17967448 0.12668742 0.8231835 0.860991 0.3033685 0.2114458 0.27526838 0.19503191 -0.02147901 0.119761944 0.229909 0.24402998 0.21527015 0.21705748 0.31749678 0.3553613 0.5899624 0.8379241 0.3075178 0.2720509 0.27944154 0.07001375 0.2646886 0.3884417 0.3727135 0.25574267 0.08590196 0.05654846 0.10892806 0.09265374 0.13215685 0.3841285 0.3275778 0.2034154 -0.04328482 -0.15998028 0.04568645 0.006189313 0.21427682 0.12059336 0.20238425 0.3129686 0.28320825 0.1923546 0.27089658 0.38900265 0.24394843 0.49668595 0.010935351 0.20777103 0.62984926 0.6055145 -0.2099311 0.6182716 0.61917543 0.18385597 0.14606884 0.7268275 0.66517216 0.66606873 0.10449786 -0.0069870017 -0.08625957 0.15919179 0.7338079 0.71412987 0.6893283 0.073728606 0.05314754 0.067243814 0.07044128 0.19518831 0.20353411 0.14218077 0.36778063 0.4205095 0.70119226 0.698223 0.70485616 0.7368611 0.7674565 0.51873326 0.6408218 0.7227803 0.7130378 0.76466024 0.33525544 0.62094116 0.74864596 0.317495 0.33108422 0.5827607 0.7380141 0.7095947 0.61975247 0.19260365 0.49139997 0.6732845 0.6124642 0.60494435 0.5904034 0.50196433 0.27681112 0.0043279626 -0.075973734 -0.114905134 0.28396663 0.37983286 0.4158852 0.44020313 0.418248 0.0851922 0.3619933 0.53325075 0.54462916 0.57880574 0.5511553 0.48666775 0.29814956 0.7563312 0.5720799 0.6115974 0.63197726 0.6158556 0.57517266 0.5285237 0.76447684 0.77398586 0.78826714 0.7797164 0.6462517 0.62458074 0.6067178 0.73165405 0.8136185 0.83031964 0.818163 0.77855927 0.8551397 0.90341353 0.90684366 0.8354125 0.91004014 0.9319995 0.8880396 0.900219 0.87727404 0.21064526 0.24013239 0.26707703 0.28909436 0.68541336 0.6972984 0.53571725 0.47293243 0.42220694 0.22540975 -0.021788156 0.0583347 0.18186131 0.30024245 0.3394452 0.31211483 0.2644576 0.6221584 0.64607364 0.6746744 0.6797859 0.6410552 0.58755577 0.5862192 0.08912325 0.085002266 0.18811208 0.16163394 0.054384075 0.039729044 0.1065719 0.18143299 0.56117946 0.5573095 0.5285936 0.53811955 0.57930267 0.56752706 0.5142186 0.27236044 0.33880836 0.34865314 0.30890015 0.28298092 0.37289688 0.49787372 0.5305333 0.615213 0.43708664 0.16279143 0.4953763 0.508529 0.3333469 0.35481578 0.40100998 0.27773815 0.26055774 0.406443 0.23829009 0.6787132 0.34672797 0.38589954 0.21546564 0.8710332 0.81491995 0.67287546 0.5040905 0.32104158 0.100360885 0.14668177 0.9341942 0.8704343 0.7242267 0.5915629 0.4908579 0.22498332 0.59467053 0.7073066 0.8931308 0.8384296 0.7361666 0.6208241 0.5505994 0.72043097 0.7543237 0.8616649 0.8232132 0.77954197 0.66076815 0.38716784 0.46391815 0.5405157 0.71498543 0.76816696 0.6321326 0.35931358 0.3975773 0.49690104 0.64465094 0.7793181 0.5719854 0.48856398 -0.08694261 -0.28545368 -0.1642327 -0.33273143 0.19548237 0.37624532 0.12554148 0.059063286 0.022667613 0.1792831 -0.44786048 -0.24063024 -0.2951282 0.18413883 0.2721715 0.2984893 0.237385 -0.004617309 0.0732484 -0.23656991 0.74343145 0.700346 0.011012776 0.03478059 0.07128735 0.08449115 -0.009867858 0.070086986 -0.15880165 -0.20757037 -0.12166232 0.73347044 0.78794456 0.7328416 0.59326243 -0.025415327 -0