# vtk DataFile Version 2.0
Really cool data
ASCII
DATASET POLYDATA
POINTS 7752 float
-32.96496 34.073814 76.850296
-33.179394 34.161568 77.42568
-33.068886 34.045635 78.39925
-32.844315 34.021736 79.30864
-32.895573 34.675514 76.20185
-33.254284 34.58277 76.867294
-33.368256 34.6028 77.40311
-33.276333 34.687485 78.47793
-33.103783 34.69399 79.396515
-32.848095 34.866096 80.19938
-32.668877 35.282913 75.81459
-33.20235 35.309696 76.76455
-33.344147 35.387177 77.32244
-33.283287 35.397125 78.57123
-33.259747 35.5699 79.271324
-33.025974 35.48243 79.98295
-32.975418 36.024376 76.666374
-33.04978 36.39081 77.87233
-33.07952 36.195427 78.4031
-32.93952 36.284485 79.04001
-32.685234 36.284725 80.098274
-32.702328 36.76833 77.07095
-32.62841 36.95434 77.85205
-32.68743 36.757423 78.744286
-32.75872 38.965885 83.04552
-32.931805 39.01965 83.874695
-32.71162 38.77942 84.231
-32.580288 38.81683 84.859
-32.62762 39.245247 82.874794
-32.91275 39.647587 83.69731
-32.887936 39.646885 84.398315
-32.612278 39.870686 85.04497
-32.721268 40.041542 83.14946
-32.844826 40.246395 83.66298
-32.806984 40.42599 84.321
-32.668037 40.336014 84.903694
-32.660645 40.92216 83.87573
-32.686165 40.852325 84.24443
-31.580473 30.75659 86.18086
-31.806055 30.773422 86.85107
-31.794271 30.812706 87.46574
-31.75838 30.956654 87.88966
-31.87776 31.502403 86.76203
-31.911484 31.449926 87.531845
-31.774055 31.348343 87.970314
-32.257103 33.30271 78.399345
-31.836016 33.11943 79.08906
-31.60867 32.403355 86.49164
-31.7872 32.138855 87.41002
-31.687702 32.11029 87.97511
-32.24208 33.748417 76.498924
-32.554565 33.554447 77.615715
-32.491867 33.551674 78.57969
-32.45142 33.669987 79.40851
-31.915953 33.864635 80.38932
-31.7639 34.878075 74.08684
-32.07029 35.014458 74.45062
-32.537327 34.67032 80.478836
-32.1086 34.663815 81.13315
-31.878906 35.616646 74.10921
-32.276196 35.46324 74.93204
-32.400475 35.517002 75.55399
-32.117294 35.281265 81.42494
-31.697433 35.21953 82.189125
-31.85347 35.88788 74.12579
-31.925556 36.051975 74.49267
-32.25101 36.25099 75.62591
-32.490673 36.249577 80.638626
-32.2271 36.39538 81.22852
-31.979874 36.71479 82.818306
-32.090134 36.791958 83.48824
-31.906675 36.76374 84.13723
-31.792969 37.08995 85.15068
-31.663149 36.699615 74.89734
-31.9358 36.72729 75.85837
-32.31089 36.827534 76.627396
-32.473324 37.07039 77.335236
-32.364532 37.31224 78.715355
-31.82026 37.50788 82.271805
-32.35125 37.573135 83.626625
-32.272186 37.816376 84.334076
-32.053085 37.829266 85.34927
-31.748932 37.692688 85.76745
-31.99309 37.841377 78.467735
-31.988888 38.214977 79.508705
-31.657578 38.326862 80.740906
-31.649479 38.15018 81.73996
-32.204674 38.44298 82.47453
-32.39124 38.174503 84.740875
-32.376347 38.54915 85.16287
-31.76554 38.47956 86.05789
-32.07307 38.9909 82.322174
-32.48255 39.17826 82.69119
-32.451714 39.554146 85.35308
-32.06195 39.49263 85.88823
-32.43913 40.47572 83.0134
-32.60116 40.675587 83.39871
-32.33929 40.364502 85.33593
-31.85902 40.42282 85.90084
-32.056973 40.998207 83.20128
-32.29066 41.16725 83.757545
-32.336197 41.148453 84.390366
-32.057556 41.020344 85.11067
-30.800396 27.024855 75.81166
-30.680893 26.52001 76.320816
-30.767527 26.714338 77.10403
-30.658768 26.726704 79.7101
-30.686003 26.865108 80.381134
-30.678898 27.60315 75.50268
-30.961796 27.553339 76.506226
-30.90906 27.603569 77.40306
-30.732079 27.84492 78.561264
-30.772211 27.438807 79.66745
-30.755037 27.360714 80.31964
-30.59823 27.31878 80.88825
-30.725225 28.350918 75.89182
-30.951958 28.16012 76.570885
-30.941093 28.570173 77.46488
-30.96678 28.314913 78.27436
-30.681618 28.29896 79.56729
-30.63072 28.951483 85.27751
-30.791916 28.71707 86.3561
-30.70759 28.82786 86.857605
-30.76258 29.013483 76.96394
-30.748642 29.761164 77.77631
-30.911604 29.538517 78.27742
-30.658253 29.481644 79.02987
-31.087421 29.705637 85.754486
-31.212032 29.649412 86.5873
-31.000414 29.684776 87.400185
-31.016249 29.881628 87.781586
-30.71708 30.128996 77.637566
-30.76884 30.046223 78.37836
-30.673836 30.96586 84.317085
-30.979385 30.824987 84.988815
-30.956324 30.221249 85.52581
-31.524487 30.387777 87.52461
-31.310717 30.72915 88.235504
-31.06543 30.946907 88.645836
-30.667276 31.125961 77.35636
-30.898857 31.663748 84.37246
-31.401499 31.377663 85.5514
-31.4343 31.489462 88.39637
-30.93603 31.522583 88.778114
-31.382008 32.63626 78.22986
-31.076096 32.280334 84.72526
-31.492855 32.56921 86.75539
-31.449179 32.669304 87.80043
-31.259827 32.333282 88.35439
-30.864412 32.062023 88.76196
-31.234243 34.093002 74.46707
-30.919508 33.727345 75.17728
-31.48816 33.45815 80.16509
-31.292671 34.114185 81.33207
-31.109901 32.809746 85.76147
-31.030132 33.064915 86.58369
-31.21585 33.05338 87.403915
-31.079054 32.968704 88.0669
-31.254215 34.764866 73.8231
-31.294025 34.800728 82.38078
-31.092342 35.09439 83.01356
-31.289055 35.41564 73.66446
-30.756966 35.772392 85.05565
-31.322369 36.172752 73.962265
-31.555725 36.320335 74.29338
-31.404564 36.516407 84.62207
-31.376305 36.553905 85.02737
-31.32519 37.050083 85.906364
-31.145638 36.97734 74.721634
-31.366846 37.063953 75.20985
-31.502314 37.077435 76.28833
-31.280855 37.51584 86.21758
-30.84542 37.77318 86.55127
-30.689508 38.69728 76.715034
-31.417671 37.974792 77.55893
-31.455734 38.52606 80.522514
-31.326128 38.540817 86.41018
-31.002438 38.420704 86.57456
-30.862307 39.41598 77.59626
-31.038044 39.417362 78.65883
-30.954279 39.276127 79.47852
-31.329994 39.27543 81.80441
-31.446907 39.59845 86.43999
-31.057007 39.6088 86.735664
-30.647108 39.855083 78.23155
-31.659117 40.408756 82.72797
-31.169327 40.486774 86.40659
-30.949873 40.25287 86.65524
-31.635931 41.04075 83.14237
-31.608753 41.31089 83.61573
-31.543673 41.41017 84.59308
-31.356535 41.272205 85.33753
-31.094904 40.985367 86.05696
-31.630299 41.521107 84.218735
-29.6109 22.168575 78.786705
-29.621805 22.237513 79.13348
-29.743498 22.89795 77.47702
-29.840229 22.707138 78.74632
-29.70417 22.549074 79.338486
-29.711449 23.977768 75.7756
-29.753407 23.611412 76.65901
-29.856974 23.598673 77.57783
-29.923792 23.263325 78.69386
-29.843246 23.221878 79.30468
-29.815655 24.81791 74.854256
-30.057785 24.567621 75.72665
-30.172953 24.527714 76.97115
-30.163523 24.669804 77.27645
-30.083776 24.616545 78.06117
-29.919554 25.607897 74.81078
-30.361223 25.599516 75.770035
-30.299683 25.637577 76.560326
-30.187645 25.633581 77.21342
-29.9618 25.24883 78.423164
-30.146662 25.853634 80.582886
-29.941559 25.97625 81.03162
-29.99022 26.547144 74.720215
-30.449242 26.526033 75.30423
-30.455355 26.376558 76.98471
-30.432365 26.932184 78.47499
-30.502949 26.65905 80.769066
-30.331463 26.617813 81.03762
-30.14624 27.369602 74.765785
-30.33612 27.283487 81.19392
-30.14796 27.981567 85.86114
-30.260923 28.161877 86.493256
-30.041422 28.206398 86.89964
-29.720488 28.03722 74.58954
-30.374979 28.476257 75.50146
-30.128508 28.35595 81.09745
-29.761276 28.054167 81.84253
-29.724766 28.689152 84.03213
-30.51425 29.022873 85.13932
-30.516012 28.418484 86.46668
-30.390623 28.565681 86.990715
-29.861477 30.209558 66.608444
-29.8811 30.202307 67.23479
-29.759922 30.257381 67.82726
-30.30973 29.08025 75.9877
-30.21991 29.701979 76.30479
-30.366858 29.851725 79.59442
-30.087414 29.177168 80.58973
-29.632444 29.48977 84.075325
-30.345936 29.465008 87.77423
-30.017239 30.815231 66.00792
-30.234976 30.796234 66.52184
-30.131496 30.642706 67.37572
-29.793015 30.573019 68.07259
-29.586096 30.85339 75.061264
-29.9931 29.920502 75.89726
-30.064632 30.769756 79.66832
-30.055983 30.108826 80.19141
-30.16138 30.114172 84.257515
-30.469696 30.482395 88.55361
-30.264006 30.707653 88.795525
-30.056 31.426506 65.88795
-30.368374 31.439743 66.50577
-30.357607 31.370382 67.197426
-29.931036 31.257496 68.11509
-29.570898 31.675158 73.128914
-29.73488 31.750124 74.075424
-30.17638 31.270906 76.47986
-30.433056 31.598576 77.32386
-30.489218 31.448355 88.94392
-29.993334 32.087814 66.06109
-30.146412 32.198963 66.58529
-30.064117 32.329224 67.40707
-29.789568 32.448734 74.87663
-30.265896 32.172817 76.756256
-30.313774 32.338005 88.798805
-29.72183 33.033585 67.31958
-29.576796 33.1869 72.92011
-30.535538 34.220737 73.73655
-30.362314 33.81246 81.173546
-30.324217 33.823486 82.275795
-30.104862 33.35589 84.79695
-30.41376 33.517067 86.844124
-30.574726 33.42298 87.75107
-30.379406 33.15389 88.23925
-30.302843 32.781734 88.622665
-30.644377 34.6222 73.60984
-30.31022 33.56155 87.34944
-30.57211 35.529144 73.40482
-30.863619 35.53082 73.48693
-30.52463 36.07326 73.651024
-30.612846 37.078396 74.44236
-30.64972 37.575092 75.53
-30.482386 37.27493 86.475716
-30.268402 37.621925 86.63237
-30.389929 38.505337 76.32344
-30.318462 38.72768 86.72904
-29.886198 39.31575 76.25807
-30.38102 39.322876 76.75509
-30.466011 39.160534 80.33862
-30.476452 39.630505 86.81328
-29.979609 40.021442 76.82995
-30.177206 40.22681 77.5551
-30.215834 40.261528 78.29779
-30.148985 40.04053 79.05886
-30.696154 40.366325 82.7685
-30.471401 40.720257 86.54928
-30.479326 40.46505 86.683334
-30.85416 41.095127 83.60541
-30.392065 41.358604 84.97961
-30.538399 41.312878 85.534424
-30.445854 41.008644 86.25085
-28.5493 21.13951 74.77376
-28.829912 22.131392 76.04561
-29.006962 21.861189 76.7728
-29.18016 21.946138 77.718216
-29.172348 21.722916 78.5648
-29.209885 21.893782 79.41052
-29.079645 22.133465 79.952705
-29.435858 22.553205 76.68649
-29.234594 22.586609 80.11684
-29.350634 23.889236 75.03532
-29.469286 23.532541 75.523
-29.164417 23.75658 80.51821
-29.009975 24.509192 74.33161
-29.623926 24.780796 74.60949
-28.823109 24.78458 81.13051
-28.53159 24.689789 86.50137
-29.307766 25.726387 74.126
-29.486061 25.38527 74.43185
-29.09961 25.82372 81.501976
-28.768177 25.505516 85.51728
-28.733688 25.729885 86.290955
-29.369776 26.648478 73.927414
-29.43549 26.477028 81.55325
-28.643572 26.72544 83.55854
-28.672453 26.371656 87.01959
-29.13723 27.569523 73.877464
-29.583452 27.451714 81.82463
-29.249777 27.732607 83.407936
-29.56143 27.736448 85.03929
[...]
POINT_DATA 7752
SCALARS features_00 float 1
LOOKUP_TABLE default
0.53148556 0.53955716 0.5061389 0.4763403 0.52981985 0.55586016 0.562799 0.5573622 0.517669 0.45126045 0.484956 0.5245774 0.5440798 0.5464124 0.50902295 0.46754187 0.45289227 0.4123205 0.43956792 0.42176124 0.40143725 0.35440868 0.31935048 0.34853756 0.551238 0.6162113 0.5751369 0.567793 0.56887436 0.68864036 0.6968291 0.7060232 0.69201326 0.74581075 0.77755386 0.7655317 0.806823 0.81143874 0.56126297 0.6475636 0.68196696 0.70926726 0.7201793 0.74786377 0.7471118 0.40245408 0.36624414 0.71785194 0.7785045 0.79127574 0.45189497 0.4508377 0.43541622 0.43541157 0.36213717 0.5665385 0.54174703 0.40849978 0.31629282 0.5648496 0.4974497 0.46853396 0.28584582 0.17794244 0.5582255 0.521844 0.42327553 0.3561687 0.23508146 0.27216262 0.31998223 0.33314717 0.4217549 0.45141834 0.35790974 0.3272015 0.2962383 0.27905256 0.2349406 0.40761447 0.42378968 0.47487295 0.5022411 0.22698946 0.18661998 0.033096846 0.11783701 0.36855027 0.47529858 0.5309884 0.56069714 0.41567403 0.52994025 0.65414524 0.6478982 0.7190882 0.76807284 0.76912856 0.7753792 0.7722777 0.8138493 0.83246887 0.83594054 0.37806496 0.31884032 0.2563969 0.28760004 0.31320918 0.36483783 0.35103077 0.2813987 0.23164701 0.2843104 0.30206573 0.2904499 0.30820048 0.32654274 0.26355076 0.23697364 0.26641166 0.31115413 0.429394 0.45413405 0.24270277 0.19376524 0.23819606 0.26744446 0.41959316 0.51662517 0.551239 0.5804427 0.14774823 0.22501343 0.2383678 0.32338098 0.37191296 0.6323914 0.68212295 0.70428675 -0.0028017834 0.32002285 0.5034846 0.75883543 0.75614965 0.23501393 0.4471051 0.74159956 0.7986405 0.7999458 0.7833443 0.49778703 0.3051996 0.33025432 0.22560869 0.59928906 0.71096516 0.7763859 0.7889594 0.5659021 0.16466461 0.13253129 0.59490144 0.28022194 0.57926524 0.5410045 0.33909738 0.3816135 0.49389684 0.46292934 0.37601995 0.25131547 0.5350454 0.55431414 0.24426484 0.20553505 0.06620911 0.58484375 0.5822458 0.34750938 0.2950901 0.23288614 0.26229602 0.67374873 0.678738 0.3489014 0.67642164 0.7711491 0.74360156 0.7607282 0.796896 0.8496299 0.8524301 0.8203598 0.83456767 0.5014826 0.5360083 0.31428626 0.44831622 0.53492266 0.2695813 0.26296544 0.27014834 0.3779324 0.45210767 0.27492338 0.29011822 0.2209826 0.20316765 0.18613765 0.30661872 0.31669188 0.24744862 0.1861958 0.13529783 0.2985766 0.27052593 0.32187188 0.36578435 0.23850277 0.19801563 0.30816826 0.29594812 0.31427902 0.2794101 0.33572513 0.3747256 0.3409094 0.22855636 0.2628845 0.20941244 0.12992816 0.07942154 0.28193155 0.40850642 0.3977153 0.91992915 0.8628924 0.7814653 0.19155337 0.09522949 0.2463116 0.19699731 0.07917857 0.50459385 0.90538853 0.93828 0.8513867 0.74722797 -0.1279134 0.0043217614 0.1677486 0.16970141 0.1542189 0.63544464 0.6524736 0.8648304 0.94364697 0.9134008 0.7509928 0.2588542 0.09713145 -0.09937439 -0.06659394 0.7399328 0.8167839 0.8739691 0.83426297 -0.049382612 -0.12705967 0.7716534 0.6999191 0.19563287 0.40725547 0.10220021 0.056720108 0.42198843 0.6779926 0.733655 0.73882306 0.7619816 0.50581324 0.6860254 0.58669335 0.59555876 0.5984571 0.511927 0.27236903 0.5123383 0.5122209 0.2252452 0.5775304 0.27886403 0.3115477 0.16698964 0.6762301 0.33174348 0.35278672 0.33609563 0.25758123 0.6401906 0.78187644 0.7600745 0.767784 0.82170916 0.8311081 0.8065388 0.27296537 0.113262296 0.18589354 0.37657452 0.51251227 0.57857805 0.58661616 0.23623659 0.5811504 0.18499303 0.21158506 0.4400069 0.14745313 0.24991778 0.16483393 0.49332708 0.23488204 0.25828272 0.15450493 0.34904402 0.4099484 0.23075134 0.22578377 -0.05124346 0.2860198 0.1804565 0.18803512 -0.1090935 0.149956 0.18107808 0.06370889 0.18464135 0.11346225 -0.032598108 -0.030296996 0.08189079 0.8863957 0.90923595 0.8412125 0.6986736 -0.03842651 0.044819456 -0.06822355 0.48484933 0.81210136 0.8545418 0.6994632 0.6292876 0.19251186 0.011601381 -0.13380635 -0.1566143 0.5768423 0.59672487 0.7468101 0.7950658 0.70209134 0.25925612 0.260706 0.15055142 -0.12438071 -0.21818401 0.6934471 0.6792371 0.7180371 0.7169001 0.6703347 0.28260615 0.28269595 -0.44527957 0.6725968 0.7294729 0.6408727 0.6555491 0.62533444 0.61076784 0.5031285 0.22164343 0.20515506 0.5796678 0.714005 0.5980495 0.5853331 0.5240001 0.12606663 0.48982617 0.45162416 0.5533662 0.48570475 0.51147944 0.44222564 0.45092797 0.25356513 0.41399276 0.545605 0.6315099 0.2533808 0.32052797 0.33178496 0.07641532 0.7038005 0.72030604 0.2911508 0.25919563 0.7665601 0.7798654 0.77509165 0.32856196 0.33299273 0.2873792 0.1745043 0.26957214 0.32244354 0.31616235 0.25319165 0.20838384 0.34496057 0.492711 0.5549795 0.13374054 0.10851408 0.13751478 0.23978397 0.3014909 0.29992354 0.21209681 0.11091101 0.23389696 0.5692185 0.5347533 0.14322066 0.101936094 0.19538508 0.22235057 0.17386347 0.5187818 0.4776387 0.55386305 0.55132335 0.24733298 0.19074304 0.13301833 0.07825702 0.39306974 0.4846955 0.5374491 0.53861004 0.52106225 0.20463994 -0.0047310926 0.10089177 0.26419178 0.33973503 0.44067234 0.50224864 0.4949714 0.46160328 0.14549589 0.19549736 0.27529955 0.3590045 0.437346 0.4305631 0.08358766 0.2794966 0.05313583 -0.0038719848 0.06568363 0.8321087 0.855884 0.8583692 0.65644115 0.018393837 0.2461124 0.7754724 0.79026896 0.4429167 0.070315704 0.7012051 -0.010282725 -0.21964957 0.62891245 0.6054317 0.29192543 0.29620507 0.5481761 0.57354844 0.59889466 0.08443338 0.1510545 0.380503 0.28672525 0.5546223 0.51606065 0.47188392 0.03417094 0.12647724 0.12263368 0.37305167 0.31196135 0.21434036 0.28083813 0.26947865 0.45033678 0.24342254 0.27532804 0.089018375 0.1379148 0.48289168 0.5301258 0.19591852 0.18501788 0.15137172 0.070846885 0.11885472 0.21694335 0.31625262 0.12183641 0.9367898 0.94160414 0.93744123 0.84596705 0.8605649 0.91182905 0.8666558 0.75747323 0.79433894 0.77696174 0.6379101 0.7030065 0.32774812 0.31923082 0.24165367 0.27888036 0.3805103 0.40204728 0.32466984 0.30729058 0.25200483 0.16832057 0.30326915 0.33493698 0.34083438 0.40321508 0.29517466 0.2637793 0.2610157 0.16952318 0.19233324 0.19186209 0.45738715 0.5112096 0.21035242 0.17149037 0.1256651 0.50346875 0.47260004 0.46061638 0.5104085 0.46951956 0.31886053 0.21310678 0.15679789 0.10240054 0.41164914 0.4141116 0.5509395 0.56523085 0.5607996 0.55619705 0.5661789 0.5327053 0.35598415 0.27295756 0.14406233 0.091297865 0.51229066 0.5478679 0.5358045 0.53800255 0.5784779 0.50566787 0.40924597 0.29391375 0.18826264 0.10568518 0.059433658 0.19314489 0.30546504 0.47801405 0.5055844 0.5791358 0.4999423 0.38389933 0.2461332 0.16488011 -0.08004238 -0.062514864 -0.0859789 0.13009469 0.4249659 0.53886926 0.3979138 -0.121546835 -0.05978688 0.26166427 0.3174377 0.24384467 0.26513976 -0.08137454 -0.06052936 0.1555737 0.74466604 0.7100799 0.6743336 -0.1699142 0.044691697 0.6869705 0.2982186 -0.03180141 0.008131009 0.56725186 0.5058218 0.53082603 0.5014657 0.4601575 0.39884883 0.43237436 0.04452598 0.007659301 0.015005209 0.1631628 -0.09424117 -0.07082403 0.018290386 0.120575964 -0.099487774 0.34212807 -0.17648071 -0.009759024 0.1684984 -0.04150047 0.11042035 0.10108784 0.16605836 0.26494226 0.2308205 0.092767194 0.22522193 0.30282676 0.3164783 0.20428404 0.23345305 0.12299871 0.08566459 0.36313832 0.33210668 0.29015177 0.27974916 0.8702806 0.93503463 0.9406288 0.8896701 0.8727222 0.9196 0.7825713 0.7103443 0.8297168 0.8257257 0.64251745 0.528522 0.746416 0.7181785 0.5900111 0.52170277 0.5885511 0.67824316 0.6508873 0.6042525 0.5331997 0.56431824 0.6146872 0.6029719 0.56714886 0.49840954 0.32395366 0.36685526 0.44555432 0.46417767 0.44359183 0.30787665 0.300174 0.30319393 0.29679835 0.34609228 0.3791255 0.36789435 0.36684498 0.4040441 0.3063275 0.32143044 0.3178321 0.29320067 0.23591283 0.17685276 0.25246882 0.37231436 0.4287284 0.4432583 0.29913777 0.32008362 0.43283778 0.33469242 0.3320094 0.24469109 0.39088276 0.42078006 0.4884413 0.48309797 0.34537262 0.46454093 0.5584341 0.5713789 0.5633161 0.54600966 0.55607986 0.26255277 0.1815621 0.55010784 0.5888097 -0.07486604 0.50420713 0.48833263 0.5381222 0.5657152 0.29441482 0.008099218 0.4379156 0.42171824 0.49996275 0.48875052 0.46820897 0.3352661 0.1499182 -0.1160859 -0.12380547 0.35336345 0.35154673 0.41783708 -0.08155098 0.3054279 0.3326309 -0.08489086 0.21109591 0.41954392 0.41308993 0.40816742 -0.25998917 0.5640492 -0.29842684 0.44180048 0.42244634 0.3320629 0.38411096 0.40099403 0.2999977 0.2892048 0.304329 0.38635576 0.41199288 0.21541324 0.21785586 0.2582416 0.0989613 0.029993823 -0.73921835 0.25292563 0.31761152 0.39902404 0.3418289 0.26534268 0.2367047 0.13558412 -0.08316147 -0.32538578 0.11693903 0.48576713 0.45526826 0.40462226 0.3290887 0.27133667 0.21102507 0.06782268 -0.19430518 -0.18298027 -0.17242646 -0.06484433 0.44532344 0.39499697 0.3469234 0.26906034 0.21552616 0.032127656 -0.14914744 0.0044778734 -0.08800095 -0.0802328 0.080695175 0.16226552 -0.018999785 0.1798707 0.17657448 0.31451225 0.2932484 0.23067467 0.27791783 0.04268019 0.08583228 0.379631 0.38050777 0.3690938 0.34654117 0.32793447 0.27103746 0.40430403 0.44736138 0.40907308 0.36801064 0.36062825 0.35491633 0.33573312 0.45367667 0.4364447 0.38993862 0.8437896 0.8679822 0.9269027 0.8560437 0.80337644 0.82901925 0.70617825 0.77174014 0.4686354 0.6902174 0.4679594 0.43309438 0.50244796 0.47630894 0.45018756 0.49630606 0.5195353 0.55163866 0.5472001 0.5022593 0.497067 0.5700598 0.55098236 0.33193552 0.4053455 0.48184583 0.5099335 0.49772537 0.3163977 0.340359 0.38135058 0.44885153 0.35553092 0.28905886 0.29886198 0.30206478 0.37437966 0.39009905 0.25517422 0.28287876 0.41487613 0.41401905 0.22493267 0.2624163 0.39694625 0.17469937 0.17308389 0.30173367 0.24682653 0.2431489 0.4305903 0.35737696 0.078382716 0.17797168 0.15416808 0.32564452 0.5398432 0.5704584 0.5715499 0.49567658 -0.28307527 -0.24126612 -0.1456705 -0.06555334 0.54213977 0.51091784 0.5197954 0.4454534 0.49470773 0.400451 0.43478155 0.36892125 0.32203794 0.3830467 0.36727935 0.07688993 -0.102479205 0.33069706 0.34361988 -0.31354028 -0.116828665 0.025113717 0.3185937 0.31261206 0.3362467 0.21922907 0.3721639 0.23361173 0.393465 0.3926679 0.1774666 0.16343293 0.43272054 0.42169157 0.089025594 -0.12996848 0.3627082 0.4505431 0.46151394 0.42851335 -0.19818078 0.20274287 0.332049 0.39196393 0.4855978 -0.20075573 -0.027543556 0.06101447 0.47711125 0.45091352 0.34235108 0.25162354 0.15160383 -0.06512839 -0.17514694 -0.15657336 -0.09760684 0.43535876 0.39393467 0.35109395 0.24341957 0.15259503 -0.12334023 -0.23883222 -0.121908225 0.0151077565 0.14130495 0.09530332 0.2223731 0.21174976 0.004675001 0.2600598 0.32034224 0.2743905 0.36273792 0.42861098 0.36863777 0.35034052 0.32781065 0.45472887 0.45982555 0.42254418 0.3886097 0.37382856 0.7908752 0.8281573 0.7809845 0.7204233 0.74724007 0.61632204 0.7423122 0.49137068 0.53138506 0.3834808 0.41042727 0.4280684 0.429834 0.50309956 0.44662273 0.5020884 0.4743494 0.4269242 0.30198276 0.28675422 0.41735518 0.48701537 0.49951488 0.47915977 0.30572107 0.2817107 0.41095227 0.28932643 0.30482754 0.25714818 0.36486393 0.24538648 0.26485533 0.3474437 0.3671052 0.22219741 0.2606622 0.16410005 0.13180998 0.1815126 0.0071021747 0.19420145 0.26598266 0.32349414 -0.22479904 0.027167853 0.36689162 0.51589197 0.37201753 -0.31814587 -0.39405486 -0.11575413 0.48976457 0.39176208 0.38930154 0.39493725 0.42686057 0.3548653 0.33476484 0.26803392 0.3301382 0.5574028 0.55961186 0.5656624 0.100204945 0.10801957 0.6084806 0.6092837 0.6409594 0.6045223 0.50439435 -0.15305631 -0.294702 0.58744955 0.6260748 0.6517265 0.6362171 0.49597055 0.0574086 -0.0358354 0.5340686 0.5458682 0.57401764 0.5562475 0.44181097 0.5114739 0.12937443 0.24026518 0.11261931 0.3412417 0.018467091 0.4244386 0.0016525909 0.4839933 0.12889199 0.31641698 0.43030548 0.4809879 0.37038803 -0.11996745 -0.06184311 0.10036857 0.44925386 0.22089946 0.14467794 0.045623697 -0.19679312 0.09599918 0.05093517 0.017351214 -0.050860845 -0.0867312 0.02494578 -0.012957677 0.05813984 0.13034531 0.031951897 0.040259004 0.10777392 0.22349775 0.18447074 0.30484253 0.32755002 0.2806411 0.31586352 0.42620242 0.42568585 0.36448112 0.34986475 0.3181296 0.37987342 0.38139766 0.55427283 0.5957085 0.68049973 0.5322292 0.5272057 0.3406105 0.3411501 0.31014967 0.46330142 0.34488487 0.38432866 0.341982 0.3420397 0.09250417 0.15542328 0.19479278 0.21449053 0.2363401 0.15294854 0.20777863 0.2770351 0.21806115 0.19674894 0.23504235 0.27555108 0.26421377 0.19517541 0.16813985 0.17746978 0.20714776 0.18590192 0.17062253 0.12993282 0.16226323 0.14750743 0.20988157 0.077940285 0.04433441 0.12099746 0.34056076 0.1472249 0.41170114 0.32288653 0.3790791 0.24391575 0.24403717 0.1951753 0.2719034 0.20777114 0.18573272 0.26137084 0.2553406 0.22309075 0.30056927 0.26427138 0.22935423 0.20961413 0.21079612 0.10120059 0.2582538 0.29115105 0.11954739 -0.041994963 0.17268108 0.24328293 0.2805153 0.30721658 0.10795973 0.11448947 -0.12180556 -0.336406 0.066721134 0.09790102 0.053152543 0.3258437 0.0127068665 0.25981623 0.29792684 0.020812914 0.01705611 0.29792845 0.42906696 0.39709947 0.38037616 0.07961684 0.27169186 0.49025154 0.46748585 0.5015161 0.47616726 0.10038295 0.5540424 0.5499976 -0.05210545 -0.14101934 0.23632747 0.29513308 0.30697918 0.50961596 0.3955605 0.25092986 0.2589154 0.43996468 0.36848176 0.39116126 0.3889412 0.37853703 0.39150107 0.039731205 0.21189162 0.48651344 0.4548524 0.373703 0.26270285 -0.10085286 0.2947444 0.51626325 0.45607853 -0.23022044 0.38331452 0.43079168 -0.29811084 0.47621533 0.4587061 0.03618812 -0.20680417 0.33991802 0.42572412 0.46131992 0.4508727 0.060257148 0.047329836 -0.22009912 0.08933079 0.27346674 0.36184442 0.4019771 0.18270952 -0.20048064 -0.24469078 0.2775779 -0.055280074 0.46475577 0.45187262 0.42646396 0.22712582 0.18037328 0.06703338 -0.007323578 0.052175403 0.47770488 0.46125442 0.4352452 0.40422338 0.103784636 0.078174785 0.034022555 -0.023408055 0.033249248 0.05006987 0.44763505 0.023330934 -0.006897159 -0.098998815 -0.025570624 -0.19678351 -0.02812294 0.010489501 -0.01744281 -0.11744861 -0.08836923 0.0062074065 0.03343796 0.35184935 0.031081587 0.13732874 0.16663016 0.4545682 0.43724817 0.4876802 0.024492584 0.20080188 0.3163867 0.2458624 0.5852714 0.56314456 0.5505338 0.56166697 0.25073144 0.25618026 0.28766313 0.5577393 0.5963206 0.621608 0.6022966 0.58915824 0.5823953 0.51361746 0.39388776 0.4409067 0.19959927 0.21891874 0.10131523 0.18482833 0.3029714 -0.18576886 0.051660433 0.14754875 0.19878674 0.2618534 0.38380933 0.47201782 0.53718334 0.5603911 -0.035141688 0.2559049 0.33176768 0.45086393 0.5497519 0.57376444 0.55600965 0.5089474 0.40096053 0.2757841 0.13653338 0.14234327 0.21042596 0.4448161 0.5619113 0.5806228 0.615575 0.5491247 0.45650312 0.34307185 0.19174692 0.08749442 0.4639991 0.52889013 0.63912606 0.60728884 0.5612789 0.49809936 0.3130931 0.250113 0.087221704 0.5841002 0.5569488 0.4747908 0.23703909 0.14639467 0.110224694 0.09655438 0.1153453 0.031140238 -0.1418102 0.010001585 0.046981625 0.12275834 0.039754115 0.025875628 -0.019480992 0.2961997 0.28990197 0.29747626 -0.15848105 0.28286916 0.024553375 -0.033957914 0.2420337 0.29187715 0.32798368 0.1873125 0.12719595 0.06057948 0.35634598 0.36406767 0.051773716 -0.06315804 -0.2305368 -0.029249728 -0.030448578 -0.11165036 -0.13740851 -0.10119055 -0.067008115 0.15705302 0.09306965 0.07287635 0.35494637 0.30693653 0.24891719 0.015163869 0.4007726 0.4180951 0.4163718 0.27190152 0.36797777 0.3037899 -0.16177271 0.2943682 0.5251577 0.44089362 0.22657716 0.2759253 0.55046403 0.5288794 0.2289892 0.1447766 -0.060807183 -0.31354722 0.58776176 0.5659622 0.5364584 0.43527985 -0.06212442 0.032107 0.13276643 -0.33195728 0.315251 0.55453074 0.47556382 0.07772275 0.014796928 -0.1397905 -0.42646268 0.4208921 -0.3784953 0.39006826 0.4064048 0.07296521 -0.03063437 -0.005104225 0.2262949 0.31677613 0.38014555 0.7386645 0.6340252 0.16477923 0.119841665 -0.20638351 0.73221374 0.71610385 0.5559557 0.41685644 0.3852296 0.35462096 0.27727455 0.21656933 0.17768468 0.19123827 -0.11680615 0.6636099 0.6366887 0.511568 0.47483104 0.43312743 0.35868725 0.32067162 0.2789133 0.25228745 0.08770334 0.58497095 0.5230963 0.4905309 0.48587903 0.41626644 0.3835329 0.33733878 0.28357193 0.18285453 0.07191732 0.09061927 0.47355855 0.4580075 0.46304342 0.43033725 0.41115814 0.39277077 0.3529239 0.24127245 0.15060724 -0.022017417 0.01955858 0.010483876 0.08252775 0.112872146 0.41741395 0.37826017 0.3794077 0.36539632 0.35853302 0.03760599 -0.00507953 -0.0729187 -0.11356081 -0.16906674 0.34520483 0.2015003 0.34375238 0.29489172 0.10097845 0.046321444 0.012801245 -0.11414554 -0.16559501 0.4861359 0.49633193 0.4953721 0.102239035 0.0190466 0.5725874 0.56477803 0.14308979 0.06602465 0.10989553 0.059658304 0.10171167 0.22475636 0.43879616 0.5994474 0.5894572 0.3089002 0.3591715 0.3853046 -0.07559181 0.47162655 0.5323243 0.5609447 0.57480556 0.6022793 0.5978634 0.40616485 0.4368646 0.4372414 0.29985628 0.46766585 0.4621962 0.6240454 0.62872744 0.56537294 0.52212113 0.41444874 0.11556195 0.51494265 0.45748478 0.13758604 0.4348629 0.44701874 0.15926138 0.39345872 0.31080577 0.4533276 0.50212425 0.52489984 0.5248288 0.54686767 0.56405747 0.23131786 0.581959 0.5840061 0.6522516 0.61845696 0.5678869 0.5793575 0.65073985 0.4689995 0.5370321 0.6366243 0.623204 0.07932499 0.15510343 -0.09130673 0.19361556 0.561305 0.52727544 0.18335912 -0.06885436 -0.11772426 0.000838995 -0.071591236 -0.097247034 -0.021384444 0.023962438 -0.11713405 0.03549301 0.3193773 -0.07575572 0.34042197 -0.26453456 0.23409773 0.27802762 0.2952974 -0.32692534 -0.33039743 -0.08828023 0.26332438 0.23530582 0.21036279 0.23352596 0.2848626 0.3038062 0.21024506 -0.09037057 -0.02685149 0.120218046 0.1524686 0.18182907 0.36459905 -0.06811851 0.27242088 0.7635869 -0.14883132 -0.15780789 0.7079797 0.7128397 -0.10907715 -0.15600893 -0.080444954 0.2900132 0.08444041 0.07893335 0.047042094 0.2545304 0.20111924 0.052743938 0.10638351 0.22263008 0.1775353 0.18362239 0.2676133 0.22632913 0.51555777 0.4325739 0.28430748 0.12893067 0.2901397 0.56746346 0.5233717 0.28021088 0.5850503 0.25722775 0.5789337 0.5765848 -0.17476648 0.21186772 0.6035177 0.24578181 0.62469923 0.616055 0.337738 0.019232396 0.056015976 -0.14845178 -0.6361518 0.2890351 0.09890255 0.11735159 0.0024915263 -0.37397486 0.33311355 0.36291972 0.13744041 0.2020253 0.019372098 -0.23228514 0.1218021 0.27617756 0.34954232 0.7880144 0.75066483 0.6557133 0.33701226 0.33425808 0.31625715 0.1990847 0.07431996 0.117796764 0.07434717 -0.24841523 0.76786685 0.6537529 0.6728022 0.008893896 0.6304071 0.58446 0.55305034 0.08123016 0.50927216 0.4791457 0.44018844 0.40186143 0.23541531 0.16075951 0.13566113 0.46275234 0.4219343 0.36330986 0.31258953 0.34202617 0.32897064 0.3104478 0.28796896 0.1409488 0.3212031 0.119238675 0.13040382 -0.2009919 0.48910993 0.13665283 0.14291272 -0.2651247 0.548753 0.12740394 -0.045769766 0.5870388 0.57776177 0.17639087 0.28197312 -0.10615829 0.020892568 0.32070884 0.46760273 0.52555585 0.530686 0.57682645 0.3829459 0.31912088 0.17045477 0.27084574 0.198746 0.42466116 0.51084137 0.47816366 0.4447417 0.47252327 0.45769477 0.3960349 0.22615954 0.33926454 0.48388216 0.49383366 0.4805506 0.67733836 0.6730334 0.63516796 0.65833884 0.60221434 0.57879233 0.16230425 0.49439862 0.47703773 0.41077578 0.4365407 0.022690747 -0.116815 0.19000463 0.31578118 0.37057447 0.40900457 0.49515295 0.3578905 0.54416794 0.5203684 0.56559634 0.56266224 0.6044065 0.6290592 0.5142776 0.59443724 0.35621482 0.4688269 0.58194685 0.5919715 0.012798838 0.2004195 0.5565668 0.04097861 -0.29121852 -0.06340402 -0.12337642 0.4218029 0.16606866 -0.11854999 -0.05081512 -0.02447888 0.4778749 0.5025067 0.28860086 0.102039576 -0.11852546 0.009053292 0.27007708 0.21487558 -0.245871 0.031393327 0.009718909 0.35083908 -0.09506045 0.48772812 0.34730753 -0.10203692 0.10705565 0.20104207 0.32214943 0.44275945 0.4470159 0.4988619 0.28177172 -0.081101686 -0.1893103 -0.120161496 0.016950347 0.123429395 0.3113169 0.25947505 0.29487103 0.20190725 0.3439971 0.31103793 0.70833683 0.813449 0.794796 -0.0044658035 0.7