# vtk DataFile Version 2.0
Really cool data
ASCII
DATASET POLYDATA
POINTS 7960 float
-37.63099 11.1090765 50.660942
-37.874233 11.841554 50.59852
-37.83165 11.83919 51.40047
-37.605015 11.768608 52.07566
-37.788982 12.431311 50.001743
-37.98228 12.677595 50.604256
-38.04165 12.609537 51.383076
-37.86422 12.69928 52.170242
-37.659218 12.904807 49.971035
-37.901695 13.055534 50.56169
-37.96412 13.276477 51.43212
-37.823425 13.30894 52.321068
-37.665604 13.459599 53.137077
-37.77938 14.014638 51.689503
-37.74363 14.3762665 52.498478
-37.576485 14.36985 53.29933
-37.587437 15.638923 45.883106
-37.621037 15.526935 46.522217
-37.57479 15.932054 47.12373
-37.579403 15.127566 52.74768
-37.573368 16.076061 45.87885
-37.562077 16.244894 46.47914
-37.551193 16.259264 47.147823
-36.733902 9.353815 49.638527
-36.78584 10.102884 47.95886
-36.923763 9.916139 48.76574
-36.903072 9.642787 49.580864
-37.014206 9.797599 50.272484
-36.808315 9.870875 50.888588
-36.779037 10.648169 47.11431
-37.02933 10.70185 47.629948
-37.239475 10.600608 48.55961
-37.38227 10.54275 49.494095
-37.43818 10.609004 50.342545
-37.287792 10.812338 51.271137
-36.9612 10.966133 51.92472
-36.856136 11.194084 52.89299
-36.720337 11.440578 46.671818
-37.23392 11.446328 47.637978
-37.361458 11.226393 48.49746
-37.564163 11.391972 51.629192
-37.27912 11.64708 52.537918
-37.15027 11.852903 53.44419
-36.81407 11.869266 54.364025
-36.565285 11.616366 54.897438
-36.91557 12.550094 47.20125
-37.528263 12.626639 49.667454
-37.416126 12.501418 53.378445
-37.094513 12.588346 54.125164
-36.68865 12.276536 54.845398
-36.909714 13.908133 46.06778
-36.930008 13.017081 47.897373
-36.92841 13.60624 48.243862
-37.08474 13.482501 54.28207
-36.963444 14.902618 45.05251
-37.294685 14.845556 45.61466
-37.4825 14.881393 46.43575
-37.328495 14.800062 47.062202
-37.16317 14.234439 48.268295
-37.14217 14.360292 49.24979
-37.15064 13.816413 50.234512
-37.511364 14.411724 51.22633
-37.33343 14.767044 53.574432
-36.97479 14.932284 54.55625
-37.090195 15.42654 45.009403
-37.437237 15.429368 45.482635
-37.461384 15.627353 47.789997
-37.479137 15.498106 47.938004
-36.868893 15.248282 51.1336
-37.13883 15.541891 51.583572
-37.463387 15.162204 52.95385
-37.084618 15.074882 54.198742
-37.02128 16.274836 45.044968
-37.36592 16.453245 45.711754
-37.42186 16.636759 46.430737
-37.369568 16.492609 47.34181
-37.034992 16.532066 48.40462
-36.657146 16.088028 49.264156
-37.025494 15.740095 51.935524
-37.095554 15.914488 52.629047
-36.86397 15.94917 53.481888
-36.643314 16.21249 54.52449
-36.67427 16.893251 56.48339
-36.75517 16.61386 57.54264
-36.98944 17.000195 58.0041
-36.953156 16.842838 45.279453
-36.88575 17.310686 45.675102
-37.19692 17.152826 46.408237
-36.85234 17.508827 47.21359
-36.831524 17.031895 48.21658
-37.26217 17.891777 56.806778
-37.251236 17.54872 57.587612
-37.026917 17.611042 58.192722
-36.77426 17.736769 46.015526
-36.782158 17.752966 46.477448
-36.70305 17.689503 47.104416
-36.82087 18.75117 56.084633
-37.17121 18.799376 56.73941
-37.290485 18.505013 57.41948
-36.952057 18.41571 58.275955
-36.71838 19.423319 56.17336
-37.029716 19.414103 56.73396
-37.167686 19.337574 57.440662
-36.94687 19.410965 57.995956
-36.78188 19.96579 56.798794
-36.842377 20.074259 57.405087
-36.790195 19.925938 57.924606
-36.146587 9.320472 48.98796
-36.281734 9.221569 49.528946
-36.42464 9.290145 50.217037
-36.00874 9.33443 50.847263
-36.1615 10.127375 47.137993
-36.256107 9.94405 47.637356
-36.420418 9.56602 48.736546
-36.653996 9.439435 49.525135
-36.6781 9.516268 50.31144
-36.3673 9.656922 50.982807
-36.066704 10.8323145 46.397655
-36.431244 10.673856 46.794743
-36.63558 10.373668 47.25252
-36.07355 10.741395 52.73776
-36.34095 11.064558 53.60559
-36.16022 10.952147 54.60996
-36.11996 11.016538 55.177837
-35.803825 11.326396 45.910686
-36.474163 11.823799 46.61042
-36.654354 11.377826 53.18574
-36.513634 11.377497 54.69914
-36.341118 11.573493 55.15064
-35.973495 11.301772 55.777924
-35.695377 12.908359 44.02539
-35.917706 12.606673 44.93092
-36.21367 12.863243 45.557327
-35.92573 12.807679 56.15584
-35.672558 13.414831 43.915585
-35.86357 13.572903 58.567642
-35.73815 13.668732 59.350277
-35.60842 13.9545765 59.940273
-36.474586 15.031225 44.549965
-36.145634 14.192102 55.316284
-36.053417 14.402418 58.520557
-35.897453 14.407726 59.373383
-35.68897 14.330125 60.041492
-36.44626 15.53075 44.629208
-35.924194 15.137769 55.698246
-36.102413 16.08846 57.80612
-35.81451 15.173455 59.62981
-35.722862 15.036035 60.031036
-36.585106 16.370617 49.180126
-36.33327 16.130539 50.624825
-36.37577 16.265965 51.6336
-36.17264 15.965963 55.374763
-36.464172 16.766298 58.4384
-36.39271 17.13554 45.009552
-36.586704 17.260828 48.342392
-36.105354 17.14579 48.912807
-36.198513 16.891449 52.83329
-36.398342 16.796944 53.663715
-36.185307 17.113293 54.075493
-36.636745 17.667645 58.514294
-36.671032 17.797974 58.616936
-35.898853 17.936167 45.226246
-36.259 18.05704 45.74552
-36.294003 18.16135 46.36373
-36.36046 17.911709 47.142323
-36.22632 18.437582 55.307564
-36.31106 18.570827 55.503403
-36.629814 18.721968 58.502167
-36.33026 18.617167 58.68886
-35.811634 19.098251 55.12539
-36.502922 19.632557 56.016075
-36.532185 19.453856 58.398067
-36.086266 19.428204 58.615906
-36.121346 19.95398 55.993145
-36.471355 20.361559 56.92724
-36.514347 20.356451 57.459084
-36.28573 20.076574 58.147404
-36.039787 20.556555 56.905277
-36.137398 20.551168 57.515575
-35.51317 9.25981 48.890354
-35.517197 9.036065 49.621807
-35.451427 9.050308 50.20035
-35.663067 9.32163 50.886475
-35.64328 10.145277 47.085777
-35.637634 9.797741 47.78063
-35.2195 9.784405 51.70401
-35.288094 10.210348 52.594364
-34.94564 10.162343 53.165096
-35.06965 10.288671 54.118393
-35.398697 10.384685 55.253963
-34.69415 11.137337 43.022404
-34.749844 11.004272 43.55849
-34.80491 11.1209135 44.525818
-35.769054 10.869436 46.382618
-35.52545 10.427406 54.79215
-35.26869 10.856245 55.959316
-34.83247 11.632429 42.900314
-35.0647 11.577302 43.449707
-35.07697 11.564457 44.38387
-34.873928 11.64883 57.495224
-35.06578 12.165511 58.186005
-34.895782 12.529922 42.80796
-35.31091 12.843896 43.431076
-35.352734 12.748364 58.562916
-35.09638 12.738505 59.32612
-35.066864 12.920138 59.81792
-35.441772 13.358928 59.187317
-35.322556 13.866524 60.255493
-35.072407 14.024837 60.69393
-34.738663 14.589784 42.189323
-35.0861 14.478383 42.9139
-35.455673 14.568234 60.458565
-35.03242 14.81169 61.061817
-34.66921 15.29139 42.545883
-34.71067 15.617042 43.153076
-35.359062 15.430189 60.538563
-34.977043 15.356004 61.1624
-35.59235 16.545124 50.81151
-35.013878 16.39887 60.292587
-34.87438 15.976504 61.01392
-35.358177 17.672215 44.953976
-35.705353 17.239763 49.21949
-35.266685 16.750292 50.8363
-35.7041 16.629223 51.767315
-35.342613 17.665882 54.363815
-35.293915 17.069239 59.08592
-35.561802 17.957457 45.22056
-35.49006 18.25935 45.550472
-35.465744 18.36322 46.419006
-35.346733 18.203323 47.117992
-35.629704 17.85134 48.21804
-35.506218 17.995623 54.593803
-35.254932 17.979967 58.867306
-35.5891 19.038258 54.97123
-35.603096 19.646828 55.430977
-35.75521 19.78408 58.491364
-35.762722 19.447678 58.65467
-35.58312 20.218702 58.195724
-35.314674 20.7535 56.760185
-35.537407 20.681318 57.504505
-35.40187 20.596327 57.87936
-35.015457 9.251825 48.948174
-34.729324 9.084528 49.53825
-34.82181 9.062311 50.127724
-34.72447 9.336678 51.00872
-33.880566 9.289678 52.81045
-34.15055 10.432705 43.66054
-34.805008 10.098952 47.652225
-34.81051 9.559543 48.329376
-34.061485 9.609963 54.228092
-34.38352 10.044103 55.251003
-34.022804 10.03955 55.850864
-34.22839 10.917509 42.738747
-34.33085 10.678611 43.379967
-34.07867 10.62067 44.350212
-34.390785 10.612476 56.339573
-34.261524 11.041185 57.280586
-33.96115 11.221474 57.93026
-34.135292 11.90887 42.062904
-34.120644 11.54874 58.313416
-34.34357 12.298974 59.313736
-33.691086 13.071291 36.713028
-33.67434 12.84073 37.3805
-33.65483 13.000045 38.15659
-34.262352 12.891268 41.656395
-34.13043 13.25619 60.5482
-33.689186 13.728221 35.98779
-33.87378 13.6491375 36.681076
-33.93821 13.529912 37.37496
-33.870045 13.54877 38.429
-33.592186 13.2725315 39.524326
-34.129314 13.73305 60.881615
-33.81002 14.4750805 35.885246
-33.993847 14.585475 36.528393
-34.033806 14.29586 37.254112
-33.97357 14.66077 38.405373
-34.02542 14.595772 39.673447
-34.196457 14.500077 40.9257
-34.46634 14.694872 61.400803
-34.243736 14.8413105 61.57366
-33.692116 15.304355 35.883163
-33.855125 15.356345 36.52709
-33.926914 15.210726 37.429867
-33.91822 15.291783 38.37323
-33.91946 15.266056 39.514076
-33.93906 15.555589 40.78023
-34.371567 15.100517 41.774937
-34.53103 15.381626 61.45779
-34.172997 15.384072 61.577007
-33.65973 15.801667 37.07649
-33.61234 15.757417 39.57614
-34.18916 15.750036 41.89608
-34.641563 16.624653 60.508007
-34.387974 16.128065 61.152412
-34.238327 16.804983 51.03807
-34.63931 17.11704 52.806423
-34.219555 17.378225 53.389843
-34.28665 16.967916 60.153793
-33.728226 18.448322 45.208195
-34.69904 17.850073 47.92966
-33.87833 18.603308 54.019184
-34.728184 19.540367 54.752773
-34.293354 20.001436 54.8488
-34.57508 20.257635 57.983086
-34.02191 19.98711 58.56447
-33.519753 21.891678 50.09148
-33.882362 21.249182 56.071953
-34.322342 21.154745 56.663525
-34.105743 20.665613 58.02148
-33.563175 22.247734 50.447323
-32.817806 8.357602 52.88789
-32.689575 8.1310625 61.3812
-33.839256 9.345726 50.395298
-33.40825 9.019675 52.732155
-33.24924 8.686366 53.388905
-33.35534 9.129606 54.444363
-33.042614 9.172556 54.9786
-32.839012 8.860226 60.975277
-33.06684 8.875371 61.60076
-32.967167 8.882814 62.280643
-32.74011 8.9195 62.8901
-33.51512 10.468642 43.094566
-33.54255 10.418233 43.45357
-33.431828 10.42579 43.905804
-33.87026 9.601712 50.803864
-33.02001 9.700948 51.165462
-33.536057 9.431847 54.501568
-33.63717 9.710542 55.52392
-33.27584 9.833358 55.998913
-32.990005 9.668211 60.825066
-33.25827 9.527539 61.71574
-33.17273 9.431388 62.20017
[...]
POINT_DATA 7960
SCALARS features_00 float 1
LOOKUP_TABLE default
0.43783814 0.4390573 0.4140917 0.35244927 0.346852 0.38927495 0.4265094 0.39692464 0.27426 0.34653747 0.399026 0.38885805 0.34556454 0.37614352 0.3724658 0.3463042 0.5234973 0.4758379 0.46600717 0.36288083 0.54342854 0.5222316 0.48604637 0.5106096 0.5037398 0.5110285 0.5054012 0.4825108 0.4448502 0.45301157 0.4768715 0.49953568 0.4773842 0.45081142 0.3823796 0.31383395 0.26059133 0.38604492 0.43363786 0.45256567 0.37113047 0.30108202 0.24927738 0.22999553 0.24117568 0.29888117 0.2550256 0.2892307 0.24939483 0.22946972 0.28630936 0.16192922 0.1017597 0.29335397 0.45586163 0.473104 0.43204778 0.36126032 0.15039441 0.09064995 0.21650872 0.34180456 0.3418417 0.3086371 0.5273208 0.5296665 0.39784777 0.37509757 0.28696042 0.3197407 0.35857567 0.32747647 0.57509184 0.569316 0.5454352 0.4886662 0.41497314 0.22820026 0.3181367 0.33019897 0.34014764 0.33437395 0.42052102 0.45999378 0.5270304 0.6002644 0.61177284 0.5724338 0.5337225 0.44170982 0.692219 0.6274229 0.5984503 0.61642957 0.5979504 0.5483569 0.54267347 0.73094815 0.76876163 0.6685736 0.5908494 0.73595285 0.8111695 0.7678767 0.7518953 0.7889099 0.7660973 0.508897 0.5084468 0.49555326 0.45097536 0.4692522 0.49390948 0.51205313 0.5119596 0.49123353 0.43754435 0.40054864 0.44116077 0.47187513 0.225755 0.22815529 0.23980376 0.2609887 0.26267725 0.35085392 0.2467444 0.23868766 0.25195307 0.28535178 0.2345735 0.1499991 0.11597663 0.21331806 0.17868456 0.3450299 0.4021454 0.44654363 0.3906253 0.2472296 0.29083014 0.38313234 0.45803526 0.46851623 0.21011484 0.2786703 0.39639753 0.45949113 0.25587165 0.0925495 0.23072821 0.2329136 0.43882173 0.59481 0.42951572 0.321077 0.25415957 0.27075985 0.20257032 0.542089 0.54770386 0.56489223 0.61096597 0.61122686 0.5518989 0.2702452 0.33315167 0.6501479 0.5845059 0.2384465 0.54987097 0.7051027 0.6222211 0.5425291 0.74638546 0.75692266 0.7036963 0.6950415 0.7061235 0.49823374 0.48858953 0.46861637 0.4338248 0.44988328 0.49021798 0.26376778 0.14183107 0.11235211 0.19831792 0.26589486 0.52337193 0.5270097 0.45223057 0.38008237 0.2542485 0.26782867 0.4638176 0.44460756 0.37203205 0.20817101 0.26134947 0.36641073 0.29934824 0.32847536 0.3624076 0.41320878 0.39319313 0.47987795 0.5333825 0.12768255 0.14042541 0.5176672 0.59283054 0.09071829 0.07714668 0.559533 0.6107608 0.08613825 0.48505977 0.5903859 0.40929863 0.21884862 0.068816125 0.18816212 0.087839454 0.3115769 0.49973506 0.4941045 0.5645204 0.5553134 0.45612937 0.096841075 0.32023123 0.19142474 0.3191974 0.586529 0.5548923 0.588661 0.56176233 0.60179317 0.5690143 0.4778761 0.44657975 0.43288663 0.33811954 0.12598352 0.5387553 0.41111422 0.45866984 0.1859755 0.22078654 0.2121352 0.55063117 0.5463519 0.5013335 0.21322684 0.19962147 0.20280915 0.46282995 0.21190764 0.30018848 0.44050068 0.3896988 0.3465065 0.33706424 0.520179 0.492355 0.48787814 0.4543739 0.38983464 0.26650918 0.53341293 0.51722443 0.5262722 0.507498 0.4268525 0.28260222 0.14043456 0.5842252 0.56855464 0.47118676 0.4794847 0.45395213 0.35910845 0.22016251 0.07857774 0.08809603 0.60081625 0.57477355 0.3711591 0.16133164 0.066345856 0.47837564 0.562053 0.00272502 0.06967957 -0.026024446 0.39329743 -0.014648028 0.45761526 -0.04388635 0.14077994 0.18673262 0.4106291 0.29261738 0.56128705 0.311621 0.37713608 0.3309248 0.60212326 0.24595802 0.62130916 0.2671533 0.18090905 0.24389869 0.20837292 0.1908422 0.66428673 0.66488063 0.597065 0.5290028 0.48632425 0.47579476 0.43641075 0.22774583 -0.004758097 0.19872454 0.2011431 0.19672894 0.7105137 0.70390666 0.64440835 0.57212484 0.4943753 0.47758317 0.14244388 -0.00013901293 0.04503558 0.19956246 0.18830374 0.7670757 0.7184254 0.57990885 0.35216904 0.31253394 0.24161153 0.16316697 0.2509256 0.6715625 0.6303712 0.40942878 0.40005863 0.35319018 0.30717754 0.20205548 0.47191793 0.43737924 0.4877656 0.4750353 0.41378704 0.5249504 0.35978177 0.19611914 0.09942193 0.13012823 0.054593977 0.056938604 0.06884778 0.5092271 0.009877082 0.009221187 0.040292356 0.0151151065 -0.1495145 0.23818256 0.3879633 0.48087168 0.035677053 -0.012866482 -0.12739515 0.1318637 0.02817877 0.023389641 -0.06497188 0.21037218 0.43857598 0.4032696 0.334674 0.19406347 0.2512159 0.24156207 0.41773772 0.51669854 0.54880816 0.54765266 0.4827423 0.21037456 0.25592902 0.2748496 0.30586487 0.30076802 0.30068043 0.5339601 0.5817636 0.60713446 0.626864 0.59979117 0.24867834 0.25881252 0.6543921 0.6610238 0.6527883 0.628731 0.6826182 0.6703803 0.64161825 0.59427416 0.5513677 0.60067654 0.6239283 0.5802889 0.5381498 0.5648737 0.56864023 0.54406446 0.47205997 0.48350108 0.4561941 0.48773265 0.37112588 0.2546432 0.26737052 0.24540085 0.5699308 0.46735004 0.449598 0.1178237 0.2221143 0.23329894 0.19221771 0.40229288 0.6193224 0.4855845 0.42355078 0.38831154 0.16058849 0.17239264 0.45645648 0.54720664 0.5103153 0.4648555 0.3130119 0.33622122 0.24854319 0.10324502 -0.07711047 0.17634079 0.14541495 0.5398073 0.48785406 0.33992997 0.30662328 0.31521726 0.20371747 0.19356123 0.12134899 0.020308875 0.5719645 0.5083495 0.36109576 0.3644398 0.3895652 0.33810452 0.32222226 0.30007112 0.31981322 0.29753613 0.4361052 0.4403234 0.35286143 0.5085201 0.37501705 0.23667538 0.06681089 0.023335928 0.34233198 0.51050466 0.45955658 0.20096901 -0.073532075 0.0036362298 -0.29025945 -0.37866592 0.017943531 0.047286045 0.17014867 0.18589738 0.04266408 0.028067186 0.27554908 0.00026953965 -0.17942363 0.13032354 0.19311531 0.28778967 0.024900548 -0.02642715 0.13635965 0.24766563 0.08551555 0.17357694 0.39519066 0.409797 0.36507118 0.4469587 0.13491318 0.21362878 0.2155667 0.5619125 0.5679389 0.47009426 0.3850559 0.462494 0.18199696 0.25538725 0.3774143 0.26373184 0.6417274 0.57489204 0.6572844 0.6094483 0.3991441 0.67920005 0.68948215 0.6573542 0.5964752 0.61787003 0.61276174 0.55959535 0.47183824 0.55134165 0.6160674 0.63982314 0.5924964 0.5116043 0.3817038 0.5130554 0.59437037 0.47886664 0.46609867 0.48298365 0.38921902 0.3115285 0.27520326 0.5027194 0.58187747 0.41254348 0.44075006 0.43323418 0.41877258 0.1660938 0.55680287 0.6175664 0.6323735 0.33572075 0.30137488 0.25591904 0.13865587 0.39863408 0.5275468 0.60599905 0.61553997 0.1324224 0.06148112 0.20774294 0.35171542 0.54045177 0.59132457 0.28736654 0.34589067 0.23742028 0.26670563 0.28126454 0.24746463 0.18712494 0.18000722 0.18982774 0.1878742 0.361146 0.48307836 0.4836223 0.109678775 0.05477618 0.42576054 0.3928017 0.34131107 0.2159341 0.27167124 0.20876732 0.31732297 0.105368435 0.18209504 0.13644882 -0.06329754 -0.06360762 -0.058914103 0.09964146 0.22114275 0.43561983 0.35430136 0.4210608 0.3786475 0.30987772 0.22439283 -0.02895774 -0.0010030307 0.46519768 0.3944046 0.34797192 0.35358006 0.3467496 0.35249564 0.0494494 0.071846455 0.4149027 0.5986889 0.52269745 0.6319127 0.5698409 0.23744474 -0.0081330985 0.049343005 0.6508957 0.58625734 0.4662676 0.12866813 0.04530959 -0.02611497 -0.084458545 -0.16838074 0.58663005 0.47663125 0.116956584 0.056221988 -0.045755103 0.099665135 0.062883206 -0.0035832971 0.09935522 0.04654547 0.15550455 0.17806163 0.24411193 0.005062908 -0.027512973 0.072900504 0.0044894144 0.42147526 0.41142225 0.3767981 0.35784927 0.2647108 0.02812155 -0.04541134 -0.088748 0.16365546 0.16676685 0.65518093 0.62447375 0.6011499 0.54780066 0.40652037 0.29517066 0.22667842 0.34463933 0.73447704 0.73799574 0.69069743 0.62026334 0.5137836 0.4474764 0.24281661 0.40857083 0.4514997 0.46219036 0.44205517 0.7770088 0.73371875 0.5868496 0.6276269 0.64342225 0.6398325 0.44966608 0.4916353 0.4930917 0.33311495 0.5538721 0.5373701 0.46048248 0.5212779 0.38310617 0.24181324 0.46703392 0.083586544 0.40780008 0.43058914 0.25839186 0.4457482 0.5357193 0.58993757 0.6202135 0.6078932 0.25339755 0.30996907 0.60974896 0.5952405 0.014095627 -0.009683382 0.577662 0.28901455 0.29586056 0.28535086 -0.023492293 -0.081847675 -0.084176004 0.5019442 0.2609896 0.26881713 0.22996302 0.12906508 0.5714883 0.56824213 0.20021829 -0.049198855 0.30531996 0.4329912 0.5060046 0.5500381 0.5491735 0.49544 0.43133008 0.38385835 0.2869268 0.06794768 -0.27107292 -0.20535012 -0.008321442 0.34042913 0.55827904 0.45986474 0.32420504 0.21237473 0.41478807 0.39064163 0.34891707 0.07591094 0.09918821 0.18949491 -0.031994276 0.043879356 0.2780438 0.5274397 0.42941427 -0.14736864 0.31706798 0.48354793 0.11448931 0.17407487 0.3639469 -0.15345599 0.47169316 0.42041022 -0.15827939 -0.17234729 0.5990124 -0.056285486 0.6811814 0.6920785 0.58775747 0.42808542 0.0836393 0.037146926 0.07804851 0.019021979 0.052859284 0.062639415 0.07661375 0.30393603 0.24181217 0.13157512 -0.03454955 -0.032160573 0.14517039 0.46442285 0.624013 0.28967527 0.20824489 0.1118236 0.020091314 0.38331628 0.24873757 0.590766 0.681988 0.6005434 0.46266422 0.28288433 0.39611506 0.072042964 0.4940828 0.46353322 0.73953843 0.7800566 0.73305076 0.6632601 0.3977687 0.4866624 0.36780953 0.3721606 0.48664644 0.5114842 0.512478 0.49797392 0.23273566 0.28606164 0.26796514 0.2249913 0.38922864 0.21379943 0.20446251 0.2139744 0.13512236 0.24834603 0.38618815 0.2716736 0.4933672 0.56990284 0.60618484 0.57663417 0.07552085 0.018448964 0.5754392 0.00017133355 0.51885605 0.55441356 0.2841149 0.26979107 0.2534331 0.28319526 0.57330364 0.57382244 0.527593 0.24689135 0.13179076 0.44450986 0.52529806 0.53255844 0.47782522 0.40406913 0.3064041 0.3364572 0.34102988 0.14964208 0.24865481 0.6245242 0.5761109 0.500742 0.33951166 0.24001397 0.24082801 0.2406322 0.58191353 0.6186707 -0.14475851 0.1720856 0.5055617 0.14344388 0.3277941 0.19279525 0.37345183 0.4720021 0.5789303 0.40228558 0.24138507 0.26504886 0.32891792 0.43390512 0.63698065 0.69075316 0.5328374 0.14948884 0.2523208 0.2705708 0.31485125 0.49424702 0.62337285 0.6965199 0.6351582 0.1852135 0.2543647 0.2799557 0.5020094 0.6064816 0.646332 0.64595395 0.0018263236 0.26417738 0.28341413 0.2878188 0.6040484 0.34268636 0.088180155 0.31037283 0.17869596 0.19717637 -0.021192607 0.25193983 0.48384368 0.40804955 0.12736402 0.27144167 0.2302022 0.1989051 0.35523683 0.45154473 0.13983203 0.075426385 0.010843832 -0.014242522 -0.109827474 0.2884553 0.5746662 0.6069152 0.52293205 0.2861956 0.08670219 -0.023820177 0.43050966 0.38148192 0.6685524 0.7246446 0.72967017 0.6083418 0.32637894 0.15382569 0.069087245 0.3761061 0.5125434 0.5282452 0.5121118 0.47503734 0.36078507 0.3536482 0.3524356 0.5855139 0.56767046 0.5772378 0.57972443 0.31249386 0.3072685 0.3090087 0.32155454 0.6077684 0.6175889 0.6330586 0.6046063 0.550906 0.4683681 0.10518308 0.20459478 0.21765406 0.21821818 0.5938708 0.5963787 0.6038954 0.56216776 0.51119566 0.055730812 0.46021798 0.48162442 0.46039665 -0.015242323 0.094862014 0.1477249 -0.048178166 0.46101868 0.023948349 0.5001879 0.091362 0.015028007 0.49736536 0.15117154 0.4824553 0.07037752 0.26262224 0.2523677 0.15505646 0.2600294 0.26575568 0.3580719 0.5435987 0.54191387 0.23957443 0.37123913 0.45441234 0.50720686 0.50104827 0.49239284 0.47288054 0.3669626 0.3106372 0.32736784 0.3212786 0.15689862 0.62126034 0.566068 0.31385934 0.289696 0.34234333 0.21058063 -0.11780748 0.09185258 0.20567119 0.2551732 -0.008565441 -0.103604734 0.5903691 0.61687744 0.46938473 -0.2086719 -0.07746993 0.3048812 0.44062394 0.5024465 0.28399616 0.5602549 0.61221147 0.6362293 0.32523078 0.24489623 0.67556375 0.6806576 0.40101004 0.7348592 0.5001191 0.59005386 0.64368784 0.7156664 0.52125764 0.25535965 0.2651977 0.3012026 0.48929793 0.53975457 0.62372744 0.44677824 -0.020145949 0.2268198 0.22889253 0.23466513 0.22678272 0.4925624 0.56201607 0.5867942 0.23437005 0.47369838 0.30274734 0.27288073 0.5764042 0.5378206 0.22756289 0.28103343 0.5604266 0.5094153 0.3362885 0.15997222 0.08471133 0.077145875 -0.00020921975 -0.01578091 0.28975973 0.23002878 0.45453578 0.4696153 0.4698892 0.24426468 0.09571291 0.05895833 0.02402062 -0.02183253 0.0030907365 -0.26385877 0.37004623 0.39337873 0.5751748 0.064849555 0.056428716 -0.11551663 -0.21786013 -0.2719042 0.28887767 0.49652004 0.44363776 0.42652953 0.4546242 0.5260577 0.6091589 0.61742496 0.6749198 0.402295 0.4177088 0.42741567 0.52390325 0.50346684 0.4572998 0.45352364 0.43883502 0.34824592 0.3795333 0.39073277 0.3894269 0.36205387 0.6232226 0.5758709 0.52126026 0.50797397 0.501562 0.41525176 0.3280005 0.10532724 0.19052522 0.345197 0.6942004 0.6118865 0.26704723 0.2010225 0.0029321313 0.076391205 0.28346303 0.68117374 0.59717816 0.3749682 0.041228145 0.2956628 0.46472573 0.37821656 0.33477494 0.12283091 0.09889433 0.32902005 0.32643032 0.2673887 0.22415033 -0.017255507 0.34122652 0.36059722 0.42449036 0.39603963 0.32318658 -0.06265937 0.35531676 0.33892986 0.44721213 0.06384421 0.32568583 0.3848558 0.027194142 0.18541396 0.20303375 0.23499143 0.47593734 0.19927618 0.17306778 0.48188204 0.4893208 0.394749 0.3886888 0.4043275 0.40469337 0.37550876 0.25653127 0.28075814 0.3711838 0.39273793 0.5714377 0.4976719 0.17311783 0.2877735 0.16310963 0.0021039052 -0.030895207 0.1876735 0.26141918 0.119694136 0.1549287 0.37300447 0.54924434 0.5004252 0.3315729 0.47552133 0.4596036 0.3423643 0.4819789 0.5381924 0.20847328 0.5940682 0.595436 0.6216676 0.6511448 0.2646424 0.74938625 0.66835624 0.7199007 -0.0032392852 0.123452336 0.21786746 0.23953798 0.23987988 0.45586324 0.55312186 0.62565464 0.43624458 0.21828368 0.2203121 0.23350728 0.5757388 0.5683228 0.27052036 0.2567674 0.592814 0.00055698305 0.12591389 0.22427718 0.2863086 0.5761166 0.54839593 0.499057 0.0131224 -0.1375726 0.014491066 0.14249685 0.19087783 0.1715371 0.4828203 0.4652371 0.3802077 0.1832065 0.17896709 0.25054145 0.25063366 0.033866137 0.02965267 0.1917195 0.2392202 0.06021773 0.08789713 0.036430646 -0.13723251 0.21601792 0.28086743 -0.061365664 0.051773876 0.50544906 0.14311427 0.35253912 0.6893224 0.64905405 0.5201473 0.6226259 0.67978704 0.67638105 0.5354306 0.63372135 0.65666544 0.6503982 0.5176881 0.40194374 0.4050486 0.47390425 0.48210728 0.5373968 0.5992149 0.54951763 0.47681105 0.39904246 0.36267608 0.37028036 0.45276695 0.44609818 0.30745965 0.3893953 0.7413949 0.6646814 0.57970667 0.28161812 0.0455036 0.121607825 0.35161695 0.7786142 0.7145636 0.10913027 0.06519401 0.28991303 0.317988 0.78558594 0.7259414 0.088993445 0.37713873 0.72449553 0.5721284 0.029437028 0.06900112 0.38683486 0.36301923 0.0036819298 0.3743564 0.5809229 0.5331755 0.47976935 0.306303 0.12691998 0.039151438 0.05366163 -0.007857159 0.33874518 0.60900694 0.589257 0.4907105 0.3144377 0.21850249 0.65753865 0.6325588 0.69588816 0.03159938 0.13569438 0.010234296 -0.056714892 0.022246897 0.29240602 0.12728752 0.11389446 0.51657665 0.078604504 0.5080012 0.32693297 0.09986372 -0.006278666 0.45429587 0.46419728 0.25982535 0.2663735 0.21858218 0.2589023 0.111476295 0.03523387 0.08215031 0.073578365 0.008328106 0.024023116 0.37921268 0.07982479 0.09696865 -0.03570629 0.2750763 0.31497607 -0.033870332 0.2607983 0.3930956 0.057628743 0.2713397 0.47581518 0.07819135 0.55834055 0.087909535 0.64125884 0.25836787 0.74616253 -0.07392897 0.74816084 0.34473306 0.052885637 0.24118334 0.22474489 0.2422503 0.3905562 0.537235 0.6808468 0.5221516 0.44698328 0.03473393 -0.058698714 0.093804516 0.22820932 0.2419392 0.57076466 -0.10814117 0.089917585 0.22622117 0.2113743 0.15838769 0.5949923 0.58998746 -0.15047641 -0.13815862 0.08627894 0.24576168 0.55768085 0.4977466 0.04354692 -0.045373812 -0.048382893 -0.20453903 -0.19303969 -0.048589163 -0.13332534 0.46797925 0.4076895 0.3378287 0.24623577 0.059597522 0.041875698 0.039023157 0.05443768 0.026907697 -0.06623785 0.012751956 0.06276931 0.041612647 0.003468655 -0.24407944 0.3729982 0.28685543 0.14346413 0.50755316 0.14660965 0.5958263 0.54305494 0.3553468 0.33119673 0.29086077 0.49084604 0.58378273 0.5953771 0.60601807 0.40429395 0.42863032 0.4561386 0.40516415 0.5098928 0.44887912 0.48699272 0.46121377 0.54874766 0.6268632 0.61572856 0.373165 0.35624245 0.37117735 0.41572124 0.40507856 0.337685 0.43132815 0.5942524 0.5279274 0.6239507 0.5550631 0.4769252 0.3915259 0.3834612 0.08234958 0.06541266 0.25237143 0.42701098 0.7650771 0.68004835 0.28740683 0.8256613 0.8053283 0.38400176 0.42953923 0.6991279 0.61615336 0.44170135 0.4490213 0.45692348 0.42249498 0.54725736 0.008841416 0.05381063 0.37724322 0.6064818 0.21033302 0.09218102 0.089349024 0.07699084 0.008239418 0.25845802 0.67755604 0.7139403 0.51907384 0.38081577 -0.07444669 0.783635 0.7919644 0.64406025 -0.0054149777 -0.11396085 -0.12066655 -0.20233521 0.12779848 0.29418385 -0.13059041 0.46567172 0.03120472 0.5025068 0.13623509 -0.13505007 0.4699806 0.16507283 0.115587875 0.036996007 0.090936586 0.13155606 0.12814888 0.056540973 -0.14895633 -0.08175141 0.35779437 0.11624241 0.13018638 0.13841105 -0.089955166 -0.082053736 0.26500738 0.28084424 -0.12300444 0.38417917 0.43198848 0.37293854 0.30366036 0.5185103 0.35469842 0.7287539 0.26620463 0.6222291 0.7128017 0.11648439 0.17762616 0.121314526 0.25363925 0.47447366 0.093433626 0.22969934 0.23528273 0.2179939 0.53290117 -0.28286275 -0.25897557 0.02935278 0.13400552 0.56291795 0.551131 -0.20609444 -0.27386943 0.5295386 0.41792378 0.39343596 0.028582387 -0.08103323 -0.11347592 -0.18214035 -0.24934117 -0.22891462 -0.21628891 0.37219784 0.3246434 0.23601778 0.03082423 -0.037234716 -0.038562976 0.017128788 0.0068842717 -0.20210093 -0.20145349 -0.02571267 -0.012743279 0.0031493232 0.0785482 -0.22532491 0.28496656 -0.28759903 0.41956684 0.16046707 0.5233322 0.48091054 0.25071722 0.3296752 0.32791948 0.3159945 0.504795 0.5315174 0.32432663 0.36626634 0.41624564 0.35966513 0.48375943 0.37478787 0.46743873 0.49409613 0.49105448 0.53117776 0.44437635 0.40325215 0.5047912 0.53845 0.55517554 0.5444247 0.5272814 0.49057359 0.5905507 0.64052594 0.61584026 0.39071116 0.36794797 0.3703221 0.37024748 0.3407009 0.41664252 0.57330334 0.5347809 0.6250704 0.55308366 0.4917329 0.4479465 0.35128057 0.2202406 0.109802246 0.16800934 0.47596815 0.75833666 0.6808232 0.818766 0.36966565 0.39476907 0.7521058 0.55175257 0.44002533 0.4528579 0.59161013 0.3558669 0.49573123 0.28212255 0.50262463 0.454126 0.5148666 0.4601503 0.43453136 0.60129803 0.06784765 0.064162165 -0.011674032 0.3030948 0.69255865 0.33286518 -0.04240919 0.7905265 0.78846425 0.62403536 0.47927332 -0.05441709 0.084842905 0.22141618 -0.019881587 -0.063826144 0.30382872 -0.13935524 0.477591 -0.08889517 -0.12898165 -0.1912264 0.34106332 0.14683431 0.15367004 0.099825926 0.018880874 -0.21406433 -0.0960314 0.11267045 0.04204632 -0.08176305 0.13727975 -0.15292 -0.007816648 0.46821982 0.5205922 0.46656072 0.28618205 -0.09311188 -0.27912563 -0.36604127 -0.47281298 0.52787435 0.4751645 0.4820192 0.43153387 0.4951357 0.45805532 0.44802672 0.38968912 0.3556772 0.24358664 0.5272186 0.124500886 0.118221946 0.09533889 0.19511333 -0.042762525 0.2061376 0.18237852 0.17855892 0.42719907 -0.23366888 -0.27337036 0.094094425 0.23601222 0.2826705 0.28865272 0.44308788 0.34017026 0.34020966 0.2850961 0.24039267 -0.09742087 -0.09728179 -0.11303126 -0.1955979 -0.21218331 -0.20308608 -0.19057964 0.31383118 0.29329187 0.19292243 0.030638471 -0.060711093 -0.11144902 -0.05984395 -0.03238134 -0.14041397 -0.077520475 -0.04902146 -0.06625959 0.14639865 -0.5301435 0.2229178 0.104686305 0.056607444 -0.107905835 -0.0064203856 0.27522185 0.17685498 0.12314835 0.05223023 0.046710618 0.34644705 0.40508366 0.13221264 0.0864441 0.08897093 0.13216817 0.3541047 0.39118183 0.19563499 0.18558727 0.15604118 0.09955538 0.28381026 0.32271093 0.28061295 0.30284584 0.32641298 0.43864307 0.44724613 0.38476738 0.4977125 0.5130399 0.46463615 0.5044913 0.5474866 0.5575397 0.56518924 0.514125 0.48275024 0.5423633 0.5502516 0.52887726 0.4919812 0.55325896 0.5402151 0.5042016 0.47170967 0.6009748 0.6164839 0.5814075 0.4219247 0.38725445 0.3698918 0.35363543 0.58749 0.5596861 0.51182926 0.55459875 0.50582266 0.47020844 0.36502826 0.34552816 0.26234403 -0.0066063106 -0.07361995 0.47404265 0.6313457 0.5588734 0.35566005 0.6848726 0.23179707 0.51798767 0.224965 0.22950089 0.27785254 0.42846444 0.11068733 0.22447987 0.3592899 0.5037524 0.5228291 0.23558012 0.027359009 0.22563781 0.27829796 0.47816235 0