# vtk DataFile Version 2.0
Really cool data
ASCII
DATASET POLYDATA
POINTS 9023 float
-26.67688 36.21749 24.923918
-26.636633 36.03462 25.556631
-26.85153 37.040596 24.06462
-26.886421 36.74672 24.486273
-26.997324 36.727047 25.359911
-26.801151 36.556473 26.461224
-26.651632 36.791397 27.124943
-26.872902 37.577118 23.990454
-27.143927 37.57796 24.591284
-27.161339 37.55821 25.306036
-26.914946 37.37593 26.395975
-26.71796 37.214054 27.05058
-26.821558 38.28581 24.137186
-27.030222 38.112324 24.557247
-26.985954 38.132515 25.2587
-26.7599 37.90188 26.228397
-26.075602 35.962524 24.065077
-26.34685 36.04841 24.500004
-26.344545 35.846905 25.568047
-26.26115 35.83305 26.537954
-26.060198 36.044926 27.169992
-25.859013 36.990253 23.127077
-26.284292 36.573143 23.719477
-26.38274 36.585724 27.32745
-26.144302 36.658195 27.65438
-25.908894 37.42292 23.185732
-26.308449 37.867775 23.540943
-26.465498 37.340015 27.328749
-26.175995 37.060856 27.692781
-25.86707 37.973305 23.199888
-26.485443 38.36421 23.909105
-26.639282 38.59889 24.293455
-26.653008 38.492588 25.515247
-26.14737 38.343018 26.551083
-25.993732 37.938572 27.292728
-26.325298 38.77374 24.993383
-24.810385 35.345783 23.624502
-25.107922 35.13991 24.609991
-25.085672 34.9657 25.41081
-25.295166 35.142487 26.47764
-24.838236 35.210773 27.092573
-25.186441 36.120483 23.083324
-25.366707 35.83983 23.553865
-25.681028 35.5229 24.274565
-25.23891 35.59018 27.304354
-25.362432 36.670307 22.877792
-25.373062 36.703632 27.870163
-25.03748 37.24944 22.550463
-25.555363 37.300293 27.807013
-24.677246 39.984913 21.890745
-25.037552 39.576656 22.777239
-25.02632 39.897854 23.603598
-25.274462 39.339043 24.611935
-25.274946 38.9726 25.264055
-24.74994 40.554974 21.46822
-24.955881 40.62254 22.458914
-25.05235 40.67712 23.54986
-24.66062 41.114902 21.143621
-24.763096 41.408543 21.680077
-24.834684 41.538254 22.511566
-24.940947 41.163483 23.364086
-24.94016 40.93091 24.084898
-24.603132 41.81797 23.094984
-23.898716 34.928497 23.63011
-24.500908 35.004 24.26805
-24.431538 34.684483 25.471207
-24.788967 34.92216 26.746035
-24.45196 35.213135 27.390913
-24.194326 35.3278 27.646898
-24.13349 35.744347 22.913473
-24.159163 35.667194 27.837912
-24.538462 36.975327 22.331562
-24.553507 36.712593 22.470598
-24.24022 36.57857 28.196669
-24.378988 37.60298 22.377937
-24.753168 37.027798 28.100283
-23.760635 37.74307 29.109686
-24.523495 38.641975 22.25703
-24.758228 38.07372 27.321802
-23.826733 38.485443 28.910112
-23.753878 38.125523 29.445816
-23.651869 38.70504 30.22978
-24.035015 39.71072 21.115679
-24.326345 39.44231 21.740032
-23.594923 39.425568 30.14172
-24.236118 40.586998 20.817572
-24.570486 40.205643 21.404366
-24.387331 40.55734 25.086697
-23.642515 40.440166 26.215359
-23.540657 40.324314 28.790012
-24.281397 41.371716 20.897802
-24.591867 41.585014 23.790258
-24.25974 41.641727 24.41298
-24.035578 40.90663 25.107578
-24.151253 41.871834 21.04139
-24.23094 42.225964 21.627268
-24.312511 42.371437 22.489141
-24.31793 42.052307 23.342672
-24.213182 41.895 23.962461
-23.847336 42.64041 21.717333
-24.057756 42.675556 22.433872
-23.924286 42.670364 22.89668
-23.287874 34.213734 24.809156
-23.204096 34.424824 26.110464
-23.180344 34.91731 23.24843
-23.313461 34.757256 23.425617
-23.52814 34.536655 24.618309
-23.541697 34.508606 25.109295
-23.48461 34.861423 27.020819
-23.395231 35.226566 27.686329
-23.690216 36.167496 22.557344
-23.211151 36.164536 22.393953
-22.939224 37.25452 30.28809
-23.121109 37.320564 22.414528
-23.506454 37.575577 29.808638
-23.178165 37.660645 30.36229
-22.81756 37.90632 30.923864
-23.254374 39.159046 21.169651
-23.678396 38.954933 21.707771
-23.12677 38.570515 31.079876
-23.52105 39.193073 30.683685
-23.321178 39.537167 31.0757
-22.758505 39.59708 31.938606
-23.523108 40.916874 20.38406
-23.302622 40.31365 20.564945
-23.19755 40.698616 27.589697
-23.39581 40.48768 28.282816
-23.32463 40.65366 29.378914
-23.025318 40.52142 31.327143
-22.774677 40.081463 31.958767
-23.610394 41.38369 20.428692
-23.512413 41.73094 20.634462
-23.420364 41.036263 25.438158
-22.860949 41.12401 26.443401
-22.851166 41.704082 27.306099
-23.41457 41.135162 28.101986
-23.280907 41.58874 29.326122
-23.111847 41.24818 30.52434
-22.75078 40.929478 31.565187
-23.344202 42.179825 20.820852
-23.730509 42.548428 21.467875
-23.606133 42.57341 23.632072
-23.771137 42.27512 24.034569
-22.8882 42.058407 24.932398
-22.658827 42.49009 27.60889
-23.066004 42.62322 28.80113
-23.054338 42.46586 29.38186
-23.069834 42.64032 21.220024
-23.46919 42.74373 21.591759
-23.38556 42.935673 22.664124
-23.587729 42.80288 23.1439
-22.70712 43.02643 27.921621
-22.913345 43.04575 28.696798
-22.826914 43.04894 29.224113
-22.208399 33.975277 24.125679
-22.092705 33.72355 24.704998
-21.878347 33.762806 27.276262
-22.723602 34.512978 23.376886
-22.412842 36.752342 29.230726
-22.397936 37.155582 30.365486
-22.338573 37.91904 31.140446
-22.064854 38.709362 20.904793
-22.572683 38.383205 31.459902
-22.294455 38.992027 32.031826
-22.298962 39.581142 20.35097
-22.323095 39.501095 32.199398
-22.155228 40.482338 19.908503
-22.324968 40.310642 32.12711
-22.662964 41.24571 20.155422
-22.390589 41.41654 31.466492
-22.394194 40.99043 31.827692
-22.54881 41.79273 20.365932
-21.993422 42.41352 20.631908
-22.29079 42.294777 24.677952
-21.996922 42.002758 31.081078
-22.685753 42.835453 21.591372
-22.561766 43.079647 22.387968
-22.84001 42.721832 23.377213
-22.46603 43.153545 27.642279
-22.480968 43.461147 28.631723
-22.409119 43.301125 29.396654
-21.74566 43.9882 27.508259
-22.040684 43.71384 28.803371
-22.114574 43.65228 29.091175
-20.915346 32.38963 26.563707
-20.853785 32.5153 27.376226
-20.949205 32.97416 27.926525
-20.629492 33.86865 20.06334
-20.705292 33.546745 21.00366
-20.710657 33.569515 21.810955
-20.768858 33.735325 22.15044
-21.516083 34.214333 23.547209
-21.508892 33.66314 27.58895
-21.288301 33.78146 27.994278
-20.782917 34.544064 20.60061
-20.96113 34.744373 22.198454
-21.48692 34.576374 28.082405
-20.633133 35.274136 20.032982
-20.875902 35.310234 21.656595
-21.786045 36.465538 29.051706
-21.139055 37.24863 30.139261
-21.86527 38.115044 31.266401
-21.736885 38.897514 20.688011
-21.599966 38.965927 32.01126
-20.942125 39.454456 20.148647
-21.622442 39.54504 32.261143
-21.517675 40.45216 32.198986
-21.282389 41.590946 31.54068
-21.663246 41.244724 31.865702
-21.64835 42.033615 20.310907
-21.562637 42.618973 30.59605
-21.567404 42.18283 31.090725
-21.66272 42.671085 21.038784
-21.717308 42.80551 21.334406
-21.409433 42.68462 24.246706
-21.218735 43.423607 25.817669
-21.741632 43.376427 29.870848
-21.325272 43.946285 26.559692
-21.248875 44.351593 27.506865
-20.870312 44.064644 29.01778
-20.666378 47.138958 26.243147
-20.841085 47.93705 25.427216
-20.75371 48.75922 23.639435
-21.020315 48.69037 24.35568
-21.041203 48.5061 25.355932
-20.904108 48.355186 26.330387
-20.607033 48.451584 27.040462
-20.972822 49.512012 23.907333
-21.093235 49.5535 24.46667
-21.072994 49.40062 25.3142
-20.900797 49.32136 26.068544
-20.757303 50.197796 23.921982
-20.897797 50.40996 24.559456
-20.90296 50.335915 25.173843
-20.731565 50.743416 24.726725
-20.787512 50.7324 24.958715
-19.775425 27.985586 22.538858
-19.738588 27.938969 23.465858
-19.641272 28.149061 24.082634
-19.817553 28.564854 21.923166
-19.948105 28.39356 22.437094
-19.923864 28.415041 23.574387
-19.77714 28.586115 24.081
-19.845156 29.460947 22.053986
-20.041922 29.441463 22.635939
-19.911089 29.50801 23.271927
-19.728903 29.820856 24.061396
-19.686993 30.745117 21.90582
-19.973612 30.300463 22.706553
-19.86723 30.85874 23.163776
-19.775448 31.648998 22.409885
-19.769152 31.213156 23.565313
-20.57467 32.017086 26.501772
-20.33919 31.980461 27.209396
-20.056734 32.158813 27.983612
-19.807116 32.972263 19.779737
-20.190136 32.87593 20.631899
-20.36436 33.098072 21.710041
-20.059874 32.721424 22.326887
-20.14736 32.72291 28.493397
-20.19455 33.067307 28.697048
-19.785357 34.081688 18.721924
-20.337013 34.00038 19.559969
-20.30468 33.560028 28.799305
-19.526266 34.608875 10.746064
-19.537418 34.844868 11.066676
-20.080585 34.356537 19.012278
-20.449533 34.44732 19.611963
-19.62228 36.183212 13.743811
-19.650084 35.763466 18.146675
-20.056993 35.129906 18.603325
-20.25356 35.466064 19.294582
-20.361973 35.654324 20.476181
-20.135454 36.125988 29.619099
-19.75909 36.87829 12.643013
-19.834257 36.639027 13.705726
-19.904377 37.00354 14.264233
-19.824493 36.27951 18.7584
-20.070116 36.69332 19.875134
-20.492361 36.827816 30.17449
-19.593052 37.478752 11.567219
-19.786568 37.47752 12.60276
-19.946733 37.40764 13.494845
-19.901579 37.498394 14.283917
-19.89219 37.68871 19.890976
-20.24381 37.05142 20.360632
-19.619532 38.378395 13.488709
-19.847185 37.904434 14.257127
-20.39921 38.68011 20.342064
-20.985802 39.007565 31.62929
-21.143936 39.154537 31.903408
-20.756914 39.314735 31.507076
-21.044153 39.655388 31.998365
-20.23198 40.22511 19.73797
-20.488874 40.34396 31.56509
-21.04551 40.18945 32.084267
-20.705853 41.56973 19.992147
-20.700539 41.27146 31.431574
-19.92926 42.108322 20.126406
-20.722166 42.45438 30.736603
-20.59636 42.77321 21.571836
-20.233736 42.845974 22.732359
-20.637623 42.828342 24.472153
-20.582941 43.21257 30.207739
-20.496122 44.222702 26.046959
-19.544918 45.59797 12.008034
-19.575525 45.471695 12.560355
-19.547417 45.473797 13.406648
-19.895994 45.650513 25.291117
-20.470694 45.553123 26.357853
-20.559065 45.143604 27.323978
-20.042946 45.725834 28.610235
-19.58258 46.025936 12.603474
-19.576004 46.10988 13.391901
-20.090792 47.309032 24.509285
-20.459433 46.764187 26.032335
-20.27 46.307785 26.588451
-20.141968 46.283855 27.8764
-20.321426 46.50668 28.809004
-20.053505 46.17105 30.434969
-19.632027 46.429993 31.340235
-19.613317 46.869205 31.957733
-20.282753 47.87437 23.805342
-20.434399 47.022305 27.522993
-20.184322 47.55079 28.457806
-20.32355 47.36244 29.656782
-20.235561 47.454033 30.148943
-19.698132 47.299458 31.512177
[...]
POINT_DATA 9023
SCALARS features_00 float 1
LOOKUP_TABLE default
0.66112787 0.68187886 0.6897175 0.7016239 0.75748146 0.7296438 0.67625844 0.6902728 0.7353114 0.7685121 0.73936665 0.68034405 0.66067886 0.6975963 0.70879847 0.7209723 0.5598841 0.5999719 0.6373217 0.66975236 0.62402093 0.5326948 0.6067833 0.6428975 0.60861856 0.52172905 0.5927895 0.6431911 0.6140276 0.45983768 0.60657847 0.6086018 0.64033437 0.64259136 0.6050602 0.54713506 0.40902996 0.42124155 0.4553998 0.5319471 0.4771468 0.46175933 0.47849298 0.49694481 0.53397155 0.46494657 0.5414238 0.34477043 0.559672 0.51578707 0.42897868 0.39352727 0.27602896 0.3342185 0.61022186 0.5969878 0.4494137 0.67394316 0.7004643 0.6209085 0.4919514 0.37954277 0.5257101 0.33256364 0.36092842 0.3885134 0.45236325 0.42997575 0.3964519 0.39379507 0.39584875 0.3117519 0.35257727 0.31923217 0.22969487 0.39917803 0.2805008 0.22465377 0.47668985 0.28432322 0.37407154 0.46912766 0.4422549 0.38427228 0.48549098 0.60574496 0.5529611 0.1883507 -0.081619576 0.3096096 0.67199326 0.44298714 0.36965325 0.21955031 0.6690133 0.6746599 0.59730506 0.49134678 0.419747 0.6371213 0.59554636 0.5397346 0.28110316 0.32245708 0.286713 0.28836536 0.29470846 0.3134333 0.31733403 0.22420487 0.3664171 0.32997113 0.44037417 0.19128521 0.4059941 0.47111684 0.52590704 0.29442486 0.22316581 0.5875565 0.5559981 0.64329374 0.7604594 0.60847616 0.537948 0.10628803 0.22600004 0.38965377 0.6804588 0.75875676 0.62498295 0.61557686 0.15537444 -0.07070103 0.16165137 0.22232711 0.36700118 0.5817832 0.69255686 0.59124494 0.63184977 0.4337029 0.4006518 0.2778501 0.2922067 0.37059674 0.41634938 0.5642918 0.60572225 0.5446557 0.49460506 0.32639375 0.37718588 0.4129819 0.19949217 0.19841145 0.20936424 0.21232502 0.27833033 0.39515954 0.52089065 0.2124165 0.63719225 0.75000054 0.3425739 0.7819869 0.4752373 0.77432626 0.5503 0.65227485 0.7119559 0.5233887 0.42700356 0.24566573 0.56552577 0.52464193 0.49336362 0.40033758 0.2993567 0.3766607 0.42019016 0.22902772 0.38468343 0.3979419 0.4280725 0.45805082 0.43030494 0.3774079 0.29449075 0.16456251 0.10797913 0.034981072 0.32016593 0.34348577 0.30833495 0.13255334 0.16686866 0.26356918 0.2059331 0.17943613 0.22073121 0.54486835 0.21149257 0.73022497 0.14432633 0.7538295 0.7554954 0.5945165 0.6754601 0.37042102 0.5062578 0.54498804 0.36017215 0.36797506 0.072703525 -0.111411765 0.44324568 0.027528076 0.12279951 0.32937276 0.2210474 0.43861228 0.6437068 0.6268288 0.54040575 0.4047885 0.3161165 0.682145 0.6717681 0.62935376 0.5609547 0.68458235 0.67527103 0.65181875 0.6658672 0.65775406 0.64265877 0.65224916 0.65413046 0.61225736 0.6402148 0.6564524 0.65503025 0.5327004 0.55139875 0.5675005 0.5767392 0.3048413 0.41076946 0.33287084 0.11107829 0.26467237 0.47221404 0.5071725 0.5019913 0.43521863 0.3577654 0.148811 0.004276436 0.46934527 0.4457504 0.41034734 0.39490116 0.40036356 0.68930554 0.6068078 0.3936578 0.3537829 0.35379547 0.29862547 0.34267166 0.2588915 0.21566218 0.1267891 0.38089433 0.39050195 0.3872726 0.17507428 0.09113781 0.13931821 0.40034103 0.39781788 0.4058444 0.37175858 -0.15622982 0.010295672 0.3410303 0.34550425 -0.14325176 0.6407945 0.6977623 0.58640265 0.69326717 0.1558614 0.5457679 0.70334756 0.21682023 0.5563029 -0.008516043 0.49244177 0.12375811 0.02501867 -0.14027543 0.4637225 -0.10360949 0.61510587 0.5894296 0.5528034 -0.0049130023 -0.04822667 -0.09819026 0.14576897 0.6170436 0.6065548 0.31850284 0.17339283 0.050376482 0.07990676 0.2081101 0.41322833 0.4634066 0.4798965 0.4819499 0.12845138 0.16854934 0.29777846 0.35227343 0.45912358 0.5877387 0.29228327 0.19464806 0.30020988 0.34418818 0.40731215 0.6675432 0.67586553 0.4467829 0.66134983 0.67912143 0.6173017 0.57651556 0.50969553 0.66523623 0.6597698 0.6171644 0.58212256 0.59491473 0.61555547 0.59106433 0.6240471 0.64112437 0.63098454 0.5668072 0.6302198 0.44140613 0.50925744 0.636051 0.56304634 0.5139159 0.49551812 0.87939763 0.85300803 0.8219218 0.3851404 0.47516388 0.44688347 0.84832394 0.8084258 0.7241787 0.58537036 0.33909175 0.40359706 0.77987415 0.74345434 0.6572791 0.4452698 0.35038173 0.23086299 0.6598094 0.6131349 0.5197866 0.38051304 0.34180713 0.28068346 0.38196462 0.56744576 0.52992827 0.41016465 0.3555147 0.32930773 0.23778304 0.32216603 0.46984926 0.49633935 0.46715772 0.40266687 0.19547646 0.02924306 -0.08645153 0.05179909 0.4281888 0.40379813 0.35344243 0.2667476 0.25299415 0.00079132244 -0.108954385 0.3897933 0.35112664 0.30732912 0.30321783 0.15191473 0.036305033 -0.010315046 0.023874804 0.14981692 0.046616115 0.10232849 0.124982975 0.09459814 -0.13703574 0.045055136 0.13178165 0.03382004 -0.111453675 0.22691022 -0.08899886 -0.15313372 -0.057974294 0.34657022 0.528285 0.350973 -0.13843408 -0.04435776 -0.1166179 -0.08326502 0.5737151 0.58301586 0.53944385 0.4537778 0.44544148 0.43481463 -0.087695986 -0.089002505 -0.18268965 0.43292028 0.6021355 0.6185154 0.56514084 0.5346379 0.53371155 0.49536443 -0.06959342 0.5541497 0.6110964 0.6298156 0.6415254 0.6509792 0.6138755 0.50118136 0.08788176 0.48459023 0.505832 0.5280998 0.65167236 0.68114215 0.674172 0.63366985 0.54263175 0.33742434 0.46414435 0.5063582 0.67531836 0.6654587 0.62379265 0.55614287 0.22113772 0.31005096 0.4123954 0.43679607 0.5963181 0.2883148 0.3360932 0.3752179 0.58183116 0.6104171 0.4862821 0.43530983 0.31221515 0.62108016 0.6210837 0.6115317 0.57270217 0.45639542 0.6563164 0.628008 0.5206941 0.57278854 0.60068035 0.5743091 0.69937295 0.66504693 0.62454647 0.57708347 0.49149507 0.6013057 0.5694922 0.7616212 0.734118 0.6785028 0.5019702 0.3149568 0.56449306 0.794981 0.7597661 0.65089726 0.51789165 0.4724297 0.7634888 0.16179907 0.8287085 0.4560207 0.45965064 0.86855567 0.8658893 0.8398942 0.13050863 0.43130824 0.83848345 0.55192953 0.31698477 0.2708875 0.700695 0.7598963 0.3503702 0.17318422 0.03239037 -0.030230984 0.23486447 0.33087376 0.42466575 0.6021485 0.5851868 0.4217353 0.5168378 0.5220697 0.51557225 0.53024596 0.47110257 0.40561068 0.4321546 0.4152705 0.33298945 0.37616423 0.006734982 0.2835617 0.25760797 0.10568924 0.045920536 0.08516936 -0.090610966 -0.061317623 0.15263833 0.083393216 0.18042314 -0.031792555 -0.13369736 -0.15270704 0.50070494 0.33952004 0.33062905 -0.11202461 -0.13625701 -0.11494871 -0.029802278 0.5417466 -0.043336958 -0.06813238 -0.04567297 0.50042033 0.5372655 0.5628718 0.06883153 -0.039897993 -0.21224384 0.5820495 0.61576617 0.5790619 0.6088259 0.2303959 -0.05941855 0.5305189 0.64153785 0.6126452 0.66368973 0.56870854 0.50376904 0.32012856 0.51337653 0.5845425 0.65136725 0.6388833 0.58071256 0.45318353 0.4180002 0.46961296 0.53306174 0.4994 0.34566262 0.3526128 0.37507 0.54819506 0.58003634 0.2909078 0.30811852 0.5767302 0.56616455 0.5314639 0.36459965 0.55385584 0.5188698 0.5101898 0.6556538 0.6456912 0.6092613 0.515291 0.5122614 0.65016186 0.62840915 0.6015344 0.52603745 0.44812876 0.55840635 0.5338019 0.49053213 0.68873626 0.70095044 0.4260161 0.49057904 0.7929534 0.85718673 0.84192085 -0.17345722 0.36889097 0.85832703 -0.14760512 0.82022196 0.8097865 -0.20154522 0.3496484 0.4064265 0.41551167 0.8200133 0.8296559 0.80129653 -0.106189765 0.37605202 0.6970591 0.7788893 0.3699947 0.05377872 0.63007414 0.6383664 0.12276648 -0.03036882 0.07383741 0.50097203 0.5344892 0.5196177 0.53296065 0.48612183 0.47822598 0.54101765 0.456732 0.43370172 0.49921894 0.39308986 0.30396667 0.3386181 0.05398994 -0.20230937 0.16124792 -0.10272863 0.3742726 -0.103172734 0.46709502 0.34759983 0.45230597 0.5007249 -0.2086396 -0.18222353 0.5219549 0.6355822 0.74168634 0.5063807 0.5297773 0.079416856 0.035988964 -0.017637838 -0.025968142 0.72892755 0.780831 0.5030471 0.51096225 0.18923031 0.15495068 0.17823324 0.15870824 -0.09594829 0.65100527 0.72842926 0.5817491 0.60944223 0.6112548 0.4679355 0.3993105 0.19283988 0.58382773 0.6807958 0.34813237 0.14571954 0.39524484 0.46578902 0.24574466 0.12639058 0.25739232 0.26067725 0.32632893 0.36359602 0.552296 0.5224533 0.3409773 0.2699579 0.524693 0.4988342 0.7363095 0.705321 0.66627437 0.7236875 0.7045474 0.6637708 0.59742707 0.48695457 0.37489158 0.46948385 0.67002296 0.67595077 0.1861402 0.25908256 0.4412768 0.74197626 0.38562715 0.7661121 0.21649073 0.012876421 0.6945789 0.65923834 -0.1504636 0.8027882 0.8058914 0.8192322 -0.09742422 0.16768673 0.77446663 0.7927271 -0.13139018 0.13083796 0.23587397 0.29728675 0.72401273 0.55692214 0.031415857 0.21714965 0.59672433 0.07838686 -0.0068834126 0.38129342 0.51150393 0.4963078 0.50445074 0.54830694 0.55108154 0.4713988 0.46784374 0.5271292 0.54186416 0.43611223 0.44090503 0.3276689 0.3303129 0.27436036 0.24519444 0.24864008 -0.24260503 0.2846746 0.26373667 0.29118398 0.31446773 -0.19701685 0.4226373 0.0316301 0.21521921 0.4180157 0.515341 0.45600262 0.46540487 0.5893959 0.7601928 0.78124225 0.4612707 0.06608289 0.813771 0.43958014 0.43977016 -0.13819143 0.7853646 0.45016354 0.11583799 0.14758311 0.2306875 0.26672703 0.6424136 0.742628 0.19787478 -0.23771343 -0.2106342 0.5641078 -0.11882309 0.33402175 -0.10912195 0.06940034 0.2460452 0.37280607 0.48197326 -0.10174643 0.124507524 0.31238917 0.41783726 0.7651379 0.73102176 0.6736839 0.760382 0.7635226 0.6104244 0.3126347 0.15251444 0.24118829 0.7087438 0.72820055 0.16957003 0.6566162 0.07485264 0.27779996 0.5634432 0.48215044 0.43001476 0.10946156 0.39336532 -0.08746974 -0.23803042 0.060086496 0.7571821 0.7865165 -0.16017002 0.07444633 0.70246434 0.69442016 0.6956832 0.77671325 0.08636964 0.014348075 -0.19481094 0.040489927 0.11303097 0.11415075 0.5588703 0.59672 0.37312573 0.19631925 0.034048714 0.11116293 0.19025037 0.4085658 0.49686182 0.5337402 0.46719494 0.4519778 0.52854955 0.42472258 0.29711226 0.44375837 0.35768113 0.23367219 0.26133722 0.26516977 0.31598878 0.3218182 -0.20179379 0.34380066 -0.25138333 0.3627513 0.39889663 -0.17820707 0.1914388 0.4439581 0.5240755 0.70354235 0.3859237 0.6888014 0.7703692 0.33928987 0.34564802 -0.3048999 0.7726157 0.05804053 0.2698685 -0.26943746 0.72644293 0.045835756 0.09377434 0.15251502 0.21764731 -0.19372302 -0.47025204 0.60775405 -0.27743512 -0.14480595 0.39404523 0.48498127 0.17515256 -0.13173991 -0.2359167 -3.094971e-05 0.13081525 0.25376457 0.33484787 -0.060386777 0.090966865 0.010751449 0.22462511 0.25843745 0.28092253 0.10957864 0.23073119 0.31941506 0.12998317 0.20118135 0.23905993 0.29571837 0.22141004 0.28393346 0.35709915 0.62569296 0.7857138 0.74552417 0.6355971 0.5703829 0.5449777 0.47638616 0.45278358 0.49837863 0.7793672 0.7996285 0.6302322 0.3966549 0.37858444 0.7037989 0.32228473 0.35809922 0.35875905 0.5734536 0.5744945 0.32263005 0.35292256 0.5181233 0.39577606 0.22360969 0.30825877 0.4310532 0.4030516 0.21591301 0.3344602 0.015284784 0.11539397 -0.04239601 -0.2372652 -0.11045276 0.06747499 0.42073584 0.48750943 0.081869885 -0.07384135 0.35161114 0.23070951 0.08715755 0.06728616 0.30430236 0.38586342 0.39029026 0.28504276 0.17120337 0.42573947 0.34980035 0.23972283 0.22795069 0.26319954 -0.06311312 0.08226332 0.26708502 0.22843915 -0.08431973 0.2837667 0.25311962 -0.03848555 -0.045370836 0.29282218 -0.085486665 0.30635083 0.33576244 0.3059376 -0.39481807 0.2793469 -0.41986564 -0.06769199 0.2203916 0.5288541 0.6362467 0.32306027 0.2630763 0.3600484 0.54765725 0.64925826 0.7137643 0.20978217 0.19749124 -0.06833081 -0.29860637 0.5135087 0.6198156 0.694431 0.01568418 -0.20356932 0.5834265 0.6532883 0.017484572 -0.0021686628 0.17235316 0.5672555 0.23600072 0.32854325 0.24168003 0.44917178 0.33930016 0.23450258 0.17039967 -0.064712144 -0.07188448 0.2436001 0.35234725 0.29723033 0.19088307 -0.1259912 0.14607237 0.21983863 0.37972617 0.21715306 0.03624912 0.07355156 0.11845234 0.14530906 0.27646515 0.32425228 0.38248265 0.42008293 0.043095443 0.1039549 0.36502537 0.3528459 0.40853554 0.42100275 0.13604538 0.21144173 0.31402016 0.4328764 0.4409743 0.43124938 0.23128945 0.33623874 0.4440461 0.50938404 0.53493357 0.35523605 0.45872366 0.5340779 0.5004247 0.791049 0.8202703 0.7431587 0.641797 0.73339486 0.6921631 0.62074006 0.6042742 0.6671218 0.5761682 0.48903933 0.43131322 0.7254809 0.72130275 0.6652764 0.5423368 0.41722748 0.5166731 0.38920176 0.6569909 0.6333059 0.58783877 0.4323396 0.27300867 0.3734253 0.57911444 0.370616 0.40950245 0.3555391 0.23302376 0.28144827 0.19714376 0.20603625 0.24703172 0.16746818 0.18895982 0.089540966 0.12551793 0.109842755 0.017698213 0.02214104 0.07569793 -0.13194576 0.2858812 0.2836664 -0.2859477 -0.030421883 -0.010810353 -0.13956794 -0.05274608 0.203046 -0.018197574 0.21614732 0.27237245 0.23345187 -0.09144998 0.29052263 -0.19048691 0.2576836 -0.08674347 0.23572524 0.09805461 0.23748267 0.24891604 0.21654695 0.10686755 0.18501493 0.19617875 0.11114433 -0.0052181557 0.42195904 0.16953781 0.31440884 0.2294384 0.09526898 0.010893455 0.43672258 0.27283162 0.0714296 -0.06057762 0.19883612 0.19192618 0.33476934 0.3503182 0.37352237 0.34742087 0.015247216 0.4771809 0.3366582 0.23747982 0.23790269 0.24094395 0.4482842 0.203809 -0.0052399673 0.25817114 0.35056782 0.39585695 0.42173234 0.4357132 -0.049486183 -0.006327536 0.06388722 0.43992507 0.3508306 0.38055545 0.39734867 0.023046732 0.038710166 0.5214338 0.20982143 0.16700035 0.081354894 0.22882143 0.48776507 0.5389993 0.5457819 0.29555437 0.36595756 0.22889662 0.40237883 0.50225425 0.53831315 0.5005881 0.60501045 0.65340745 0.7413331 0.7102295 0.7879789 0.79171556 0.77503514 0.87581015 0.8737301 0.81151325 0.79269004 0.74750566 0.8291857 0.8818903 0.78197277 0.68407977 0.60112596 0.62185794 0.57501507 0.5276982 0.4955489 0.4511009 0.48246232 0.36319372 0.5312704 0.47760922 0.34351313 0.19011487 0.36613607 0.47226498 0.222472 0.19177148 0.36536625 0.33843848 0.22868198 0.31121778 0.28573775 0.29200947 0.13858047 0.34498733 0.26808736 0.26558456 0.3489439 0.0757445 0.23777458 0.32954988 -0.005413331 0.06241259 0.05403258 -0.21483736 -0.018581793 -0.011388913 -0.047901183 -0.041916557 -0.052724045 -0.04852286 -0.04659775 -0.0057643615 -0.063035764 -0.09286644 -0.007439807 0.068340294 0.20093727 -0.11391081 0.35027874 -0.22533292 0.2652508 -0.012497231 0.16290024 0.30833575 0.2593184 0.20015319 0.35262847 0.17454386 0.33351287 0.19475313 0.25099313 0.34384662 -0.06516644 0.42054713 0.44476163 0.34132287 0.026376717 0.47463265 0.41329223 0.32444465 0.46815562 0.45392352 0.32259822 0.45371422 0.32951936 0.45897293 0.4430137 0.29914123 0.24632184 0.39421046 0.41883942 0.41996068 -0.039520904 0.35610276 0.22590744 0.3406349 0.3751756 0.2076914 0.20059139 0.48604685 0.29155192 0.24645206 0.51706207 0.33819082 0.32465252 0.510253 0.5477115 0.5220655 0.54437745 0.70123065 0.69078964 0.72832644 0.8825486 0.8974731 0.81410563 0.76536584 0.9806189 1.0 0.96349645 0.8527899 0.7301571 0.7999377 0.89893043 0.84256697 0.6712445 0.6735116 0.5711386 0.5230539 0.43548304 0.4018752 0.31686208 0.20168786 0.19859695 0.27023786 0.13965201 0.091262616 -0.0055771247 0.0010160543 0.11285675 0.118945524 0.2016707 0.22764549 0.38156012 0.17553364 0.41845876 0.20989347 0.40099037 0.3630402 -0.087446466 0.28620714 -0.03714062 -0.12606972 -0.02739054 -0.086030126 0.009419933 0.084836215 0.0029061455 -0.004571289 0.12736976 -0.05898339 -0.03754019 -0.14482448 -0.137671 0.3489512 -0.1430877 0.43700734 0.42876554 -0.29681626 -0.07916527 0.19182713 0.30441833 0.2746778 0.3584444 0.34274152 0.16915646 0.18131165 0.16066492 0.2417534 0.24823391 0.15051876 0.33095178 0.37870517 0.44642568 0.26515096 0.34155747 0.47523832 0.502339 0.5110159 0.39390713 0.40895194 0.41192424 0.14423245 0.42021912 0.3850638 0.23015657 0.39842308 0.37887526 0.25359154 -0.32819822 0.05630467 0.36213246 0.22246778 0.20011953 0.16645584 0.20562415 0.33325857 0.22702539 0.34317937 0.11882199 0.32701546 0.37549102 0.38447568 0.34187827 0.62484956 0.771379 0.6466697 0.89443994 0.7202659 0.9616782 1.0 1.0 0.8201666 0.79178935 0.87190664 0.57618874 0.5995345 0.7747408 0.67623335 0.44935894 0.52885026 0.31542528 0.09876087 0.42301428 0.075910665 0.07929838 -0.24559729 0.28611857 0.035296336 0.009887654 0.2917176 -0.055245586 0.41047543 -0.061939538 0.38718483 -0.100871935 0.3269413 -0.13698827 0.075368844 0.14977305 0.22277412 0.2522329 -0.18900624 0.06356891 0.16219243 0.22375834 0.15704574 0.10715328 -0.112761974 0.025046462 -0.03927611 0.04890494 0.008098905 0.055365365 0.14899465 0.02442291 0.03428889 0.14561719 0.14839643 -0.0119296145 0.056825392 0.11720069 0.22566527 0.45959482 0.41599435 -0.2533835 -0.24256553 0.48695832 0.4902011 -0.28846696 0.49278355 -0.2623354 0.17686385 0.2445809 0.45763105 0.30735198 0.33722925 0.2738402 0.23634359 0.28368655 0.17826141 0.25900978 0.13514109 0.32788342 0.34102446 0.42190087 0.46466732 0.4853918 0.469096 -0.07038042 0.34190145 0.059873972 0.35046738 0.33067703 0.022419795 0.32968065 0.29313916 0.03808008 0.21389818 -0.011622898 0.026675 -0.37534916 -0.15506782 0.09953814 0.24485952 0.056165844 -0.005100012 0.13370486 0.1852142 0.28920698 0.021067947 -0.062501006 0.022069477 0.22604966 0.40072578 -0.047676846 0.040811002 -0.04382977 0.06978844 0.109671675 0.20239753 0.49721903 0.7704046 0.6725612 0.47190994 0.8362613 0.61893165 0.9003742 0.9036451 0.89988226 0.8150465 0.2537097 0.3594929 0.346784 0.42701548 0.4903463 0.12349664 0.5654484 0.5704272 0.513806 0.5531698 0.04144284 0.46127516 0.518952 -0.16581507 0.31656027 0.056059077 0.37943563 0.34093252 -0.17965338 0.3311189 0.2858308 -0.04096987 0.26618364 0.17307456 0.18921034 0.25805086 0.34067428 0.13840593 0.25887123 0.3094907 0.26182514 0.2645342 0.20672688 0.21996874 0.27545044 0.22779074 0.06386557 0.009260047 0.15775616 0.11703459 0.19700666 0.16287965 0.16599607 0.0034398064 0.02872406 -0.10036335 0.47570717 0.44113576 0.37726521 -0.28300753 0.5103617 0.43312615 -0.26695868 0.52438736 0.5327536 -0.19034219 -0.15363099 0.42786032 -0.12223989 0.2447721 0.23734257 0.11750042 0.27080238 0.23701817 0.31862283 0.28372413 0.2773687 0.39523527 0.4292965 0.41597188 0.33885092 0.10575866 -0.14406171 0.26615033 0.15172663 0.16751423 -0.08574728 0.11091551 -0.07816915 -0.5103118 0.14984278 0.11417047 0.0064383075 -0.3945229 -0.26639467 0.19375512 0.18159702 -0.14225821 -0.03788134 -0.016918901 0.22014183 0.23134017 0.34174198 -0.13496724 0.058616757 0.090118274 0.101754606 0.19785737 0.20605296 0.47064027 -0.12475255 -0.17141178 0.071417876 0.13325304 0.24644762 0.18408997 0.15182382 0.16650072 0.18087512 0.22276641 0.582047 0.36367333 0.17524864 0.25172383 0.29308558 0.32796472 0.13742061 0.16449346 0.19238894 0.29729128 0.72327745 0.6754279 0.63958746 0.55876553 0.49183297 0.28606743 0.32350037 0.3822153 0.36116964 0.26776037 0.15888557 0.16242492 0.3924197 0.53999966 0.78792703 0.7766781 0.7935885 0.38040158 0.37083387 0.2969308 0.61331 0.6915852 0.7370268 0.7272484 0.79899174 0.8519683 0.82851404 0.27736306 0.29364544 0.38622525 0.3854968 0.40512875 0.19674452 0.23069334 0.44336715 0.49712974 0.5606905 0.571199 -0.33097845 -0.11721161 0.5586903 0.17862663 0.1163189 -0.17825013 -0.35692495 0.45804268 0.51581 0.29545432 -0.0046011508 0.150843 0.32638508 0.000713557 0.17433651 -0.16917275 0.30846143 0.3612736 0.058223438 0.35619205 0.33422452 0.2058188 0.30364466 0.3461342 0.32859525 0.2009091 0.339284 0.14238423 0.30162 0.30716288 0.30804834 0.4411177 0.31796685 0.40527672 -0.08941243 0.12743899 0.29098552 0.35704455 -0.06303915 -0.0125926435 -0.28789285 -0.25477195 0.49422032 0.21894366 -0.15807283 -0.15389732 0.47292945 0.12939851 -0.114796616 -0.09634264 0.52798426 -0.2615416 -0.2634015 0.021283641 0.21088466 0.09989063 0.20323047 0.3329163 0.35736525 0.16397838 0.39011443 0.39618117 0.38855276 0.18701746 0.16124941 0.38679564 0.4149241 0.2662753 0.07847264 0.3574674 -0.1260669 -0.1214616 0.02124588 0.06566833 -0.09920311 -0.11412234 0.10563663 -0.18572253 -0.3343271 0.106949985 -0.23205556 0.097409934 0.10347578 -0.5442189 0.15653974 -0.0066600256 0.025964886 0.2638576 0.26601645 0.3328648 0.48217177 -0.23910055 -0.11204495 -0.038981542 0.32466382 0.5324298 0.4793414 0.47186685 0.44990116 -0.10132365 -0.03401893 0.08439128 0.37194732 0.44259512 0.5101861 0.5234263 0.5325148 0.11752552 0.24694338 0.10201933 0.535835