# vtk DataFile Version 2.0
Really cool data
ASCII
DATASET POLYDATA
POINTS 9173 float
-48.712166 25.20438 16.664381
-48.741356 25.231369 17.081772
-48.765472 25.820713 15.955117
-48.91864 25.738207 16.629004
-48.77635 25.54022 17.404398
-48.623447 25.791576 17.852968
-48.676186 26.576323 15.184925
-48.856182 26.542337 15.651182
-49.025635 26.440582 16.392511
-48.99642 26.454948 17.19407
-48.817955 26.871582 17.837631
-48.658875 27.200819 15.143104
-48.802788 27.369497 15.644422
-48.898804 27.427622 16.328808
-48.854465 27.229954 17.249912
-48.537342 28.061327 21.966124
-48.573612 28.153307 22.116705
-48.665874 27.77036 15.863487
-48.70593 27.931873 16.459728
-48.6209 28.608223 21.639711
-48.625923 28.635887 22.358015
-48.65533 29.63264 21.146898
-48.689316 29.721333 21.51458
-48.78414 29.428408 22.403788
-48.75302 29.881767 22.981586
-48.75611 30.395023 21.710037
-48.819862 30.422989 22.569294
-48.722523 30.530731 22.965515
-48.669334 30.936888 21.686789
-48.66893 30.966284 22.508247
-48.65008 30.893604 22.889542
-48.25219 25.10648 16.07906
-48.272926 24.862038 16.699205
-48.36834 24.972843 17.403053
-48.169765 25.073854 17.890635
-48.160965 25.956057 15.145003
-48.422165 25.71967 15.573151
-48.56952 25.295126 17.633892
-48.369244 25.626537 18.060293
-47.719852 26.142473 19.159115
-48.276333 26.67641 14.845148
-48.043 27.00383 18.962107
-47.654316 26.90819 21.15466
-48.269222 27.364853 14.846804
-48.239887 27.380632 18.536718
-48.035545 27.636614 20.820692
-48.257187 27.674059 21.726254
-48.13506 27.67701 22.53043
-47.97668 27.743204 23.107079
-48.195198 27.845907 15.037885
-48.33123 28.096716 15.736495
-48.274025 28.415115 16.602507
-48.39652 28.377005 17.494398
-48.38062 28.305246 18.238735
-47.8422 28.623043 19.470007
-48.247604 28.945204 20.624111
-48.469864 28.194422 21.469955
-48.432716 28.24337 22.708153
-48.18405 28.334236 23.247244
-48.075165 28.815237 17.624289
-48.11861 28.90158 18.082195
-48.402336 29.207306 20.96443
-48.436684 29.647364 23.390022
-47.927517 29.564602 23.941343
-47.879074 30.11778 19.369495
-48.394146 30.488092 20.721811
-48.424927 30.801994 21.227028
-48.42472 30.414053 23.37299
-47.99345 30.483162 23.758532
-47.757866 31.251783 19.759308
-48.223103 31.14957 20.755316
-48.333744 31.320189 21.5582
-48.398018 31.325962 22.510103
-48.341637 31.049242 23.11735
-47.713524 31.742693 20.284716
-47.960617 31.793297 21.511292
-47.90736 31.695562 22.562836
-47.514812 36.934032 13.678437
-47.526203 37.224655 13.727932
-47.525043 37.27879 13.973785
-47.581562 25.071257 15.933367
-47.63272 24.663921 16.716284
-47.56634 24.650751 17.282024
-47.604187 24.957191 18.095886
-47.004326 25.308062 19.263277
-47.62638 25.949787 15.015606
-47.6968 25.504574 15.415407
-47.165886 25.545895 19.155624
-46.76715 26.196053 21.374792
-46.629673 26.091696 28.112738
-47.596172 26.49503 14.66281
-47.311596 26.86957 20.730192
-47.17752 26.71595 21.59601
-47.15913 26.929205 22.5386
-47.428024 27.236572 23.011152
-46.690388 26.959908 27.033487
-46.66057 26.68449 27.3579
-46.86292 26.790066 28.605993
-46.74611 26.940197 29.445955
-47.584244 27.389883 14.673323
-46.82967 27.268213 27.12761
-46.984184 27.727314 27.880991
-47.11981 27.720491 28.574211
-47.028927 27.78048 29.427444
-46.840366 27.672405 30.107374
-47.700638 27.922173 14.943744
-47.4513 28.338408 15.435497
-46.95931 28.531929 27.820875
-47.195133 28.417992 28.526503
-47.15831 28.475283 29.406103
-46.88176 28.431719 30.1556
-47.391193 29.138044 16.789394
-47.5702 29.472479 18.234455
-47.23193 29.553654 24.31814
-46.721382 29.649857 27.631159
-47.08354 29.10787 28.771402
-46.948746 29.221914 29.417233
-46.66887 29.24345 30.106089
-47.257637 29.995123 17.884987
-47.460846 30.020891 18.870415
-47.523045 30.34836 24.015781
-46.688885 29.87998 29.123867
-46.703262 31.592283 17.717825
-47.034725 31.377934 18.673498
-47.502396 31.310886 19.523079
-47.65628 31.217836 23.592607
-47.569542 30.982439 23.744862
-46.659836 31.830439 18.005648
-46.859745 31.994574 18.940104
-47.366272 31.866856 19.953003
-47.181904 32.328663 20.757063
-47.1667 32.30923 21.532934
-47.42703 32.019253 22.138132
-47.38172 31.80008 22.922304
-46.860996 36.053024 12.721208
-47.1537 36.11791 13.397016
-46.91756 36.04084 14.302974
-46.98413 36.941757 12.3548355
-47.152992 36.680664 12.675463
-47.417656 36.63913 13.425492
-47.333447 36.82356 14.57549
-47.0576 36.743683 15.202299
-46.819866 36.92216 15.748943
-46.90465 37.1923 12.346504
-47.211143 37.341213 12.717683
-47.44221 37.502323 13.49661
-47.447617 37.540424 14.437209
-47.207108 37.681805 15.36722
-46.83635 37.483276 15.831427
-46.923466 37.868298 12.790598
-47.027542 38.17557 13.615588
-47.07774 38.244987 14.508725
-47.01447 38.13713 15.386093
-46.913116 38.01602 15.69268
-46.663677 25.039375 16.146118
-46.869537 24.991453 16.391703
-46.437683 24.8127 18.285522
-46.588375 25.290113 19.395798
-45.87063 25.39692 21.233316
-45.753757 25.150118 27.81369
-45.80278 24.980173 28.57838
-45.74839 25.026684 29.069193
-46.298016 26.147736 15.485107
-46.612213 25.873558 20.726307
-46.233665 25.65206 21.362389
-46.06975 25.961933 22.11839
-46.242496 26.14818 27.055923
-46.183353 25.835396 27.48044
-46.40151 25.870138 28.364609
-46.15099 25.779741 29.233181
-45.762863 26.117582 30.451138
-46.63423 26.68413 14.932739
-46.093624 26.945538 23.216278
-46.270035 26.4454 26.886408
-46.413246 26.448032 29.421827
-46.07572 26.662216 30.500141
-47.100777 27.422066 14.7460785
-46.66285 27.609539 23.83359
-46.55508 27.551588 26.829723
-46.387516 27.312986 30.684412
-46.157906 27.402372 31.128206
-46.762314 28.347124 15.506416
-46.443363 28.775597 30.685331
-45.980915 28.622654 31.358425
-45.732346 28.218554 31.764141
-46.46299 28.920172 15.800179
-46.80429 29.358585 16.558437
-46.17074 29.303413 30.5539
-45.96029 29.310198 30.979753
-46.50226 30.185188 27.157784
-46.47489 30.164827 28.652702
-46.332424 30.093582 29.269278
-45.912025 30.229753 29.841885
-46.114326 31.435307 16.875374
-46.15033 30.803133 27.074638
-46.158604 30.9837 27.587082
-46.03472 30.980589 28.288542
-45.749046 30.706076 28.893879
-46.169186 32.075047 17.201664
-46.106464 32.410423 17.546316
-46.36059 32.35092 19.090897
-46.64155 32.476604 21.69726
-46.52611 32.25064 22.14793
-46.812782 31.912912 22.874529
-45.901047 32.778595 17.738743
-46.028942 32.7506 19.228706
-46.265953 32.773712 20.288872
-46.321415 32.575977 21.548168
-45.734783 35.149734 12.084343
-45.79018 34.66209 12.761499
-45.84471 35.76308 11.881579
-46.373413 35.774487 12.320554
-46.63156 35.627575 13.6406355
-46.23092 35.996315 15.176112
-46.489895 36.45244 12.136046
-46.403366 36.393448 15.588938
-46.41952 36.81091 15.811948
-46.407417 37.245304 12.122178
-46.48584 37.51121 16.026268
-46.172646 37.82173 12.327618
-46.31188 38.29725 12.944777
-46.61351 38.410378 13.493039
-46.47669 38.46666 15.478422
-46.437588 38.116314 15.866374
-46.33901 38.61733 13.868327
-46.34932 38.697937 14.544547
-46.415573 38.610054 15.235406
-44.747322 18.060516 13.00977
-44.783943 17.915926 13.574161
-44.712864 18.010717 14.160278
-44.76783 18.544441 12.822809
-44.933453 18.46953 13.533814
-44.794556 18.599018 14.385277
-44.550247 19.787064 12.119743
-44.762962 19.342466 12.807375
-44.843636 19.348633 13.55053
-44.72295 19.36429 14.347978
-44.61976 19.188587 14.743119
-44.585636 20.004944 12.459267
-44.98997 24.236788 27.839884
-45.121582 24.244905 28.37125
-44.89739 24.242859 29.107203
-45.641373 25.061785 16.191713
-45.473602 24.759542 16.690722
-45.447163 24.656425 17.73263
-45.05724 24.662182 18.353329
-45.307045 25.00299 20.26885
-45.033142 24.884964 21.440804
-45.164803 25.162539 27.11725
-45.37395 24.768335 27.640823
-45.38996 24.441679 28.683336
-45.604633 25.096588 29.432373
-46.14052 26.099524 15.382186
-45.428497 25.5768 15.866166
-45.283916 25.684622 22.153727
-45.24299 25.348167 26.942411
-45.38156 25.636772 30.095148
-44.53984 25.344687 32.800636
-45.65547 26.89905 15.454579
-45.105618 26.798569 23.040339
-45.410976 26.768732 31.478008
-44.990982 26.661861 31.902132
-45.83586 27.484476 15.353485
-45.381622 27.424143 31.834156
-45.112343 28.628805 31.741135
-45.26111 29.968103 16.507082
-45.551464 29.58139 31.06673
-45.735634 30.01801 16.542162
-45.753483 30.522263 23.965387
-45.401512 30.103512 25.686905
-45.478466 30.043512 30.697773
-45.22456 29.884571 30.986992
-45.183346 31.503716 16.409195
-45.029694 31.39915 29.139978
-44.609505 33.187572 11.763796
-44.63424 33.112003 12.266679
-45.294216 32.258247 16.565042
-45.129177 32.030464 22.117832
-45.2889 31.843464 28.109175
-44.564503 32.703213 28.9887
-44.855022 33.986454 11.574358
-44.934242 33.55219 12.434942
-45.167885 34.08605 13.338966
-44.94742 33.282867 18.422235
-44.935627 33.349457 19.077248
-45.46565 32.96683 20.727262
-44.57944 32.970284 28.297966
-45.30368 34.745552 11.96016
-45.531075 34.52743 12.475778
-45.22019 35.325634 15.018241
-44.813522 35.163742 11.1552725
-45.649887 35.371014 11.983418
-45.095303 35.51245 15.260188
-44.738388 36.74355 11.248852
-45.64385 36.19284 11.708268
-45.65337 36.71209 15.991134
-45.763943 37.572807 12.086027
-45.558746 37.5417 16.041586
-45.871685 37.960476 12.3323145
-45.50561 38.18598 12.729779
-45.639004 38.492958 15.496633
-45.841766 38.273632 15.793347
-45.393837 38.69679 13.847261
-45.56796 38.792603 14.458929
-45.763622 38.638653 15.344998
-44.007137 17.378164 13.007141
-44.094433 17.332544 13.52908
-44.05149 17.344683 14.026108
-43.83854 18.122738 11.899813
-44.38105 17.817175 12.857448
-44.465305 17.58662 13.488098
-44.328217 17.71148 14.323965
-44.123142 17.9844 14.812852
-43.737064 18.84647 11.327455
-44.15785 18.603205 11.829554
-44.54425 18.313793 12.579409
-44.54987 18.309975 14.627163
-44.13522 18.58608 15.096574
-43.88889 19.566832 11.159031
-44.281002 19.542288 11.657786
-44.492054 19.79525 12.194779
-44.243107 19.32041 15.066355
-44.100258 20.290913 11.661325
-44.37993 20.184147 12.339736
-43.979946 20.570593 13.767899
-44.265877 20.422436 14.2478695
-44.059055 19.899015 14.960108
-43.87448 20.971714 12.199345
[...]
POINT_DATA 9173
SCALARS features_00 float 1
LOOKUP_TABLE default
0.77663946 0.72920316 0.84708506 0.78109443 0.67843854 0.59406805 0.8933673 0.86513317 0.80161786 0.6891106 0.57820094 0.8581579 0.7983986 0.70321095 0.61133695 0.41717216 0.42993855 0.7196945 0.61043644 0.4343732 0.4795516 0.47023892 0.5139773 0.55439866 0.6032693 0.5607581 0.6006781 0.6087779 0.56701636 0.60393465 0.6088463 0.80710554 0.7593775 0.667593 0.576419 0.8738545 0.8580445 0.64197505 0.55435425 0.31980076 0.90546703 0.37176198 0.28211486 0.85902375 0.43141526 0.32622662 0.38787806 0.4038567 0.44077277 0.7872945 0.68527627 0.5170931 0.42425442 0.33474892 0.16095775 0.3503266 0.40009928 0.46553558 0.51114875 0.32579106 0.25246772 0.4100413 0.6056067 0.5955168 0.1856602 0.44045794 0.51763576 0.6065035 0.5966972 0.27345553 0.45806265 0.5522498 0.5961428 0.60403025 0.3926047 0.5344389 0.57279515 0.8576311 0.8910214 0.9098999 0.73455215 0.71652544 0.64877325 0.4965675 0.23837745 0.82480454 0.7796332 0.275124 0.18522793 0.42405465 0.8754374 0.19290665 0.275849 0.3478963 0.3911857 0.4293183 0.43461084 0.45439988 0.44485402 0.83346033 0.44063437 0.476071 0.5013188 0.51643515 0.5005575 0.756732 0.64663345 0.489609 0.52235645 0.53006274 0.5147333 0.3898344 0.14568709 0.57383746 0.42726755 0.49658522 0.4700176 0.4415354 0.13094535 0.11395302 0.58373123 0.3906466 0.23698743 0.17620882 0.23349738 0.5829927 0.58330417 0.25154975 0.25366646 0.33447754 0.42836618 0.46477598 0.52128005 0.5404752 0.6028428 0.7139528 0.79822266 0.7252263 0.73481977 0.8064466 0.8883476 0.8825717 0.88026524 0.74549574 0.8209125 0.89904946 0.96204865 0.96018153 0.92484224 0.8321724 0.92994636 0.9943539 0.96137893 0.94632936 0.5771723 0.5969424 0.32234 0.16582471 0.13053387 0.39956784 0.38340336 0.3576489 0.6108411 0.091561064 0.14881916 0.23007779 0.41185054 0.4163879 0.41451782 0.37171993 0.30097622 0.72642154 0.22531503 0.40036413 0.39914554 0.3607208 0.7690404 0.32659656 0.40623912 0.4449864 0.4358073 0.5245234 0.4688655 0.4487887 0.41804603 0.33973372 0.33613744 0.41365856 0.4079979 0.36470526 0.3499556 0.34060425 0.3045752 0.3747819 0.28930235 0.2623474 0.2351139 0.23004478 0.3923027 0.38921458 0.30343392 0.39877015 0.3988077 0.47101653 0.40817308 0.3361043 0.33923525 0.3516649 0.32470366 0.32053545 0.3745704 0.4739718 0.60251534 0.7209786 0.5866051 0.78328156 0.8420063 0.6732387 0.90208733 0.70736706 0.8000655 0.89028883 0.91469723 0.9170295 0.8908993 0.8878851 0.8974144 0.77540517 0.8141309 0.8243569 0.75017035 0.8199356 0.8204786 0.62540734 0.7086364 0.7753803 0.7605685 0.74911517 0.6133094 0.358453 0.3606909 0.31801903 0.43540224 0.33251294 0.20397814 0.033202402 0.03330502 0.116310604 0.3727702 0.38246152 0.36267498 0.32733577 0.5935822 0.39317712 0.20372319 0.37263733 0.2757951 0.20462972 0.49770358 0.06695022 0.29435706 0.1909788 0.5223952 0.32770297 0.3650939 0.12192583 0.376971 0.15976875 0.49437094 0.21012633 0.33626372 0.345398 0.33651283 0.1432431 0.35209334 0.38548204 0.49777222 0.24191621 0.1685484 0.21381202 0.2936235 0.37396467 0.39189702 0.38004938 0.32756466 0.27701485 0.23175308 0.2857625 0.31294775 0.57987887 0.2304095 0.32686293 0.6359104 0.307686 0.3895092 0.79445696 0.61930066 0.8435117 0.6773498 0.68841475 0.8030781 0.84654754 0.7313235 0.7540164 0.8152983 0.7272829 0.75888205 0.7643994 0.6280108 0.7440672 0.7883338 0.7952143 0.76809275 0.5709791 0.6412995 0.72488314 0.80509484 0.7362913 0.5511825 0.60775805 0.625352 0.6881393 0.53016317 0.5759718 0.48846105 0.5326142 0.58092004 0.4644539 0.47535732 0.12221261 0.36382765 0.4326254 0.4201047 0.39226252 0.49506152 0.53322035 -0.010991827 0.06324828 -0.13426112 -0.052404653 0.050060015 0.32539055 0.36450988 0.30840603 0.3052345 0.2919084 0.34628707 0.4648857 0.5056268 0.55097777 -0.08990314 0.019676045 0.2702832 0.2079096 0.08758404 0.2525727 0.3803326 0.44655278 0.47656333 -0.044751585 0.36252245 0.43706682 -0.030392626 -0.2799802 0.23280756 0.30746213 -0.09016863 0.07555425 0.09846648 -0.03915055 0.064417444 -0.061417535 0.11493124 0.26289818 0.29238147 0.37653542 0.38630402 0.30470917 0.25355655 0.013161598 0.3640698 0.40009812 0.401461 0.034393728 0.011371727 0.09443458 0.23432475 0.15224275 0.2814627 0.33460358 0.40836692 0.40277845 0.41201514 0.2583271 0.22458228 0.16535373 0.24669376 0.248299 0.29048294 0.22745456 0.5598211 0.20525113 0.25339016 0.17537913 0.6292118 0.14901923 0.7149818 0.43067697 0.65861773 0.63716704 0.6217222 0.66244197 0.67476696 0.6993332 0.71966225 0.47012833 0.5622018 0.6075245 0.7207216 0.6878089 0.5085839 0.5782777 0.62048966 0.48626956 0.6026438 0.5084093 0.39653802 0.20321038 0.5048038 0.49311185 0.39553607 0.34218943 0.35098112 0.3775082 0.30685687 0.19041656 0.050354198 0.34796634 0.47229344 0.50254256 0.51781654 0.4570573 0.44391727 0.3444303 0.32373336 0.35511974 0.46446285 0.5099537 0.1500702 0.18478835 -0.042405 -0.13466032 0.16453023 0.3318314 0.41974485 0.4643023 0.43633938 0.39668748 0.15432051 -0.023099912 0.17960054 0.2637596 0.56074446 0.5900564 -0.10108436 -0.2536855 0.3293365 0.12504762 0.5939035 0.6046706 0.25695375 0.3597059 -0.17098047 0.0012578145 0.08209352 0.5221082 0.37935865 0.4180365 0.39810222 0.33211547 -0.09638216 -0.1991014 0.40216148 0.38170907 0.42092472 0.43644845 0.4234095 0.36649585 -0.41426587 0.33672494 0.4279628 0.36140612 0.2907056 0.2838443 -0.15369742 0.26581073 0.24091578 0.30196214 0.41683078 0.40172032 0.22094363 0.30762243 0.30406064 0.42470315 0.31207022 0.35857198 0.33270526 0.32629538 0.1189892 -0.4261076 -0.25757742 0.23135981 0.43367857 0.40237382 0.22457066 0.3692059 0.41510433 0.3906458 0.2191669 -0.070097014 0.16019449 0.30033278 0.57929075 0.6582259 0.17963798 0.4220736 0.16539195 0.120195076 0.07110605 0.3047024 0.2210337 0.27028078 0.2786744 0.28775007 0.6608757 0.710755 0.5631986 0.37040514 0.52269006 0.50803614 0.41564292 0.3202485 0.09843699 0.22385624 0.2282705 0.6640172 0.73661417 0.17213154 0.6040104 0.43875045 0.5504101 0.5597372 0.50931275 0.39990297 0.26997435 0.17695579 0.55265844 0.6026978 0.5453633 0.5693625 0.51593 0.33496493 0.45461792 0.49548128 0.5317166 0.57938284 0.50860775 0.54896 0.5228183 0.5711308 0.5731064 0.45266306 0.43164542 0.5718771 0.59747994 0.41315073 0.48981345 0.19105434 0.3542976 0.53004336 0.5309432 0.47525653 0.41244626 0.39974356 0.34956753 0.37701994 0.1694631 0.13268307 0.4780587 0.52610576 0.50745094 0.44141322 0.38903764 0.38542897 0.30423647 0.31747866 -0.020405032 0.13155133 0.4971605 0.5860455 0.5531133 0.3457136 0.41373616 0.5075893 0.5334559 0.26417384 0.21843971 -0.11114079 -0.16683882 -0.051547613 0.6021968 0.62322974 0.15279779 0.13629289 -0.08672741 -0.15093005 0.6274693 0.13977437 0.22754851 0.5596191 0.20659465 0.44417524 0.22231603 0.34324625 0.3161959 0.34783253 0.22005767 0.26633996 0.3266441 0.2578674 -0.020688167 0.3572054 0.38312143 0.24614918 0.26884276 0.38492686 0.4164442 0.39420527 0.11386523 -0.14614984 -0.15290399 0.21583581 0.42993215 0.083046906 0.17531991 -0.11450988 -0.097483106 0.24421401 0.4283063 0.436401 0.29017743 -0.2579849 0.20235331 -0.062560484 0.281592 0.43120858 0.55731565 0.4154149 0.10036707 0.56994706 0.6506182 0.6954083 0.38213938 0.38662732 0.28247857 0.31733274 0.119154796 0.07328534 0.23398049 0.20731218 -0.029243931 0.4320565 0.5539029 0.73198617 0.7820722 0.41844362 0.13050559 0.18580686 0.15984306 0.07140826 0.16415536 0.17672321 0.14269619 0.60679805 0.70840234 0.77915317 0.8356192 0.24310628 0.41154486 0.22403854 0.31443173 0.42769647 0.38353562 0.111275434 0.13542667 0.6441752 0.71750695 0.7884998 0.5105163 0.4251805 0.51646507 0.5566565 0.5160819 0.4399565 0.43387997 0.48675683 0.51296693 0.4727531 0.5090672 0.5087864 0.6025136 0.559053 0.36468163 0.40666994 0.72041774 0.7122407 0.6939372 0.28584552 0.2363241 0.7087395 0.69662523 0.6749214 0.23738606 0.10300958 0.1819661 0.6319138 0.6463858 0.63858724 0.4306084 0.27157044 0.19238418 0.15453276 0.4351564 0.5057288 0.4666786 0.42770678 0.39626378 0.3818004 0.36298782 0.30884075 0.30797994 0.13389723 0.4417073 0.36775476 0.37248063 0.30963165 0.30204767 -0.04147704 -0.23205078 0.39131826 0.52239394 0.45238554 -0.007841647 0.5197293 0.9459255 0.93685925 0.8997061 0.26712647 0.23411629 0.31029916 0.250326 0.5871838 0.58523506 0.9243456 0.90485555 0.8788395 0.20689961 0.5804765 0.87890345 0.23533246 0.17202668 0.14998853 0.54017746 0.16275565 0.4458124 0.11466612 0.298387 0.03297914 0.19103763 0.17844592 -0.084987946 0.17956182 0.22955412 0.25857842 -0.2433041 0.034163028 0.031730607 0.22510391 0.29232797 0.08685821 -0.20047544 -0.13006447 0.23623607 0.36078346 0.32318363 -0.040949278 -0.010666081 -0.121859185 0.24038097 0.34542367 0.39127237 0.07815812 0.45287287 0.6159612 0.34391463 0.07180071 0.6558176 0.33174917 0.30432612 0.04644975 0.057801478 0.77267087 0.676913 0.18595001 0.33853343 0.08169358 0.16340071 0.17280972 -0.05421171 0.37193197 0.80688226 0.23975569 0.33533004 0.18738942 0.2555047 0.2707874 0.009712848 0.09527459 0.0791105 0.3800174 0.58102185 0.68377435 0.77637285 0.8496473 0.33897957 0.31380394 0.25414512 0.31151503 0.3364496 0.40985265 0.48425153 0.42259228 0.56780064 0.6479706 0.42281145 0.45270962 0.47890902 0.49919528 0.52871644 0.649639 0.66696227 0.5542607 0.6089315 0.681125 0.6892818 0.67502606 0.5396424 0.5110755 0.4430475 0.7355236 0.71048653 0.6712954 0.60127807 0.4603346 0.4973567 0.44163442 0.7344817 0.7369077 0.7144448 0.6783457 0.6036849 0.5471108 0.280859 0.18514705 0.67891294 0.71358 0.6404843 0.54686195 0.48290622 0.1738612 0.085607626 0.09785203 0.6532879 0.6048248 0.5625241 0.57988095 0.51981795 0.27084786 0.31272483 0.28086942 0.23469287 0.16860113 0.43364882 0.33777177 0.41403702 0.34860125 0.41579047 0.3390463 0.3234356 0.32377857 0.80618006 0.7989638 0.29030946 -0.11303917 -0.45135128 0.30146617 0.33677238 0.8366513 0.83985174 0.8280598 0.87891316 0.9039209 0.90271974 0.87509555 0.3188274 -0.24692388 0.020591378 0.17306727 0.85013944 0.8516594 0.834548 0.91426086 0.9429606 0.8782063 0.32362214 0.21213858 -0.10888128 0.12944701 0.46534708 0.84470445 0.82175845 0.819938 0.8878888 0.9106778 0.83617365 0.79297775 0.29161808 0.4581662 0.5156183 0.7912 0.8089651 0.8320326 0.80171645 0.3644311 0.4175074 0.16171288 0.326974 0.23293257 0.049804248 0.17960088 -0.00079640374 0.0064979754 0.40353075 -0.23034135 -0.2547627 -0.048574377 0.10167557 0.515837 0.39667034 0.24645492 0.033558708 0.22208047 0.5718213 0.53224576 0.429097 -0.37684557 -0.5158708 0.25147966 0.56158274 0.5002636 -0.27471507 0.27203876 0.34434938 0.24927348 0.5005231 0.49226618 0.14671038 0.0077742115 0.014009368 0.6051848 0.15604973 0.16889322 0.2747417 0.06950807 -0.054577492 -0.09722808 0.6747669 0.62209153 0.22296976 0.1623303 0.18009058 0.020780712 -0.08267755 0.07656014 0.70885324 0.7085569 0.34499085 0.09687035 0.20702788 0.236087 0.28016388 0.28387082 0.23389977 0.20533434 -0.0057333 0.55944526 0.66188264 0.41546637 0.27561772 0.49800253 0.52663577 0.6422181 0.5612817 0.6025008 0.6547252 0.6979398 0.6755984 0.7082398 0.7465983 0.73063254 0.6508436 0.6445333 0.6184243 0.5881721 0.62981206 0.59027874 0.54813504 0.602759 0.5767249 0.5214514 0.60849637 0.5506942 0.57499593 0.53855276 0.47060442 0.7464626 0.694826 0.61043966 0.56687456 0.52185434 0.49294284 0.39423314 0.4867934 0.42440814 0.34350115 0.7267835 0.51154584 0.48743135 0.29938716 0.2719815 0.12425453 0.045538843 0.6613314 0.39255387 0.14268988 0.5899644 0.3555508 0.16854414 0.16916865 0.1313513 0.19556995 0.71617407 0.7134322 0.13215794 0.21234475 0.32559082 0.15569907 0.24233569 0.28399345 0.24370742 0.7511394 0.7626215 0.7559242 0.690544 0.8074235 0.7685003 0.19776674 0.17850915 0.21702689 0.25018114 0.24517371 0.22323942 0.20761459 0.20571643 0.757832 0.81207776 0.79285824 0.72866875 0.82190675 0.83345294 0.8153328 0.77573264 0.2607148 -0.0035250895 -0.074170716 0.808988 0.83881575 0.7880314 0.7440295 0.80110765 0.81819284 0.8013559 0.3248695 -0.07540907 0.8569555 0.8369035 0.77524114 0.7504561 0.7752588 0.78529453 0.8024578 0.8688131 0.8284905 0.73500276 0.7057957 0.6604875 0.6574333 -0.18901777 0.19440001 0.83202934 0.5594447 0.6626792 0.62030005 0.67438513 0.14210483 -0.069436334 -0.13646296 0.307017 -0.11802152 -0.014913499 0.46360105 0.41898957 -0.09257193 0.05767606 0.15855302 0.5465305 0.51992005 0.1865693 0.543237 0.56213975 0.2297675 0.55129874 0.2343016 0.44728532 0.33014116 0.23313552 0.25459915 0.21241927 0.40748036 0.2231336 0.21443105 0.18881096 -0.1538567 0.45437744 0.52527803 0.099427946 0.095616326 0.19723408 0.24345839 0.15211429 -0.09538871 0.52416927 0.56813 0.1857904 0.22377501 0.13444883 0.14193285 0.5504608 0.61251944 0.34016368 0.27457887 0.18022174 0.20945668 0.17501107 0.15027663 0.05891911 0.029529914 0.015198797 -0.047412816 -0.0031753257 0.009531777 -0.10448395 0.033758536 0.29200405 0.45676965 0.3930035 0.51802665 0.16440618 0.20170262 0.0728985 0.0080139935 0.50200206 0.5746558 0.5610684 0.6435509 0.6843147 0.7025566 0.6677073 0.7215359 0.7430174 0.7226089 0.4937134 0.51008946 0.5008742 0.56405663 0.57294834 0.55427265 0.5765101 0.5437945 0.5002636 0.6177301 0.63475394 0.6278819 0.5660567 0.43553433 0.63304293 0.6406412 0.629299 0.5031178 0.51000464 0.6017661 0.60139173 0.5866749 0.54856867 0.4890058 0.44798002 0.5419377 0.500706 0.3975441 0.59952974 0.56903374 0.5388968 0.5538382 0.58125854 0.56475556 0.4875608 0.43517345 0.62196183 0.6262127 0.51055276 0.4884853 0.479564 0.42203638 0.39382315 0.38197303 0.6132629 0.57141083 0.46238354 0.427846 0.32719767 0.17681015 0.52329326 0.40853935 0.27749723 0.374017 0.41865605 0.18089765 -0.029824257 -0.048769742 -0.008885056 -0.027330862 0.05908166 0.16337013 0.22422318 0.35263208 0.33506355 0.51732033 0.62987804 0.6560966 0.2563197 0.5513909 0.6313602 0.6214379 0.7552558 0.6892737 0.03254173 0.15803245 0.024565771 0.63058555 0.6085735 0.7238199 0.75667334 0.63456696 0.5298069 -0.049724646 -0.09937306 0.7264326 0.76392484 0.6377131 0.6572051 0.71753085 0.61725867 0.2427764 0.18579715 -0.15555902 0.84263575 0.61447173 0.6425717 0.21774518 -0.16381839 -0.30676055 0.86745346 0.88312876 0.73228574 0.6851376 0.49014258 0.55724394 0.18747194 -0.08066725 0.88331276 0.8434611 0.77625084 0.46149868 0.44296393 0.44340304 -0.31425345 -0.16860332 -0.058406748 0.13126938 0.2575118 -0.3067941 -0.15430795 0.097002245 -0.050041594 0.075297326 0.35065877 0.092594795 0.46705437 0.4713844 0.17069153 0.5155232 0.2188204 0.5052019 0.46597642 0.22466296 0.4593826 0.19315797 0.40396705 0.3946432 0.12926686 0.38265544 0.20070621 0.2124282 0.046621416 0.20592803 0.327688 0.23046924 0.33699876 0.30246806 0.29893216 0.31414562 0.40155175 0.31185448 0.4865582 0.41245806 0.4129172 0.3047728 0.28137618 0.11028437 0.08325635 -0.053801026 0.032311343 0.013001017 0.4767948 0.54256546 0.5692946 0.10837499 0.10483985 0.089447394 -0.013978437 0.11949064 0.19816186 0.38803947 0.5929728 0.6695205 0.66063035 0.1332309 0.1500624 0.42363667 0.4631615 0.6479094 0.6846062 0.71345663 0.70241153 0.68750405 0.27373055 0.3043438 0.7115526 0.7238976 0.7182323 0.41718253 0.4557854 0.4672312 0.44713995 0.449063 0.4287133 0.5034782 0.5316695 0.49789688 0.44200945 0.31680954 0.5481465 0.40852368 0.5616546 0.59684294 0.32976803 0.586066 0.5628548 0.5319406 0.3712582 0.3432644 0.47967592 0.6322759 0.55735993 0.54103684 0.49424705 0.457951 0.4618121 0.42747062 0.42562982 0.24643826 0.19434793 0.2980585 0.551163 0.63356113 0.51632786 0.5068786 0.4568777 0.14442813 0.4599782 0.52640235 0.5153604 0.46150306 0.38938022 0.35596028 0.5241749 0.4924246 0.5056979 0.50458765 0.46544307 0.56405336 0.55798894 0.51007587 0.48730516 0.43445486 0.43952215 0.47150254 0.5221918 0.44646922 0.40811816 0.45080996 0.40566513 0.50223935 0.5220304 0.33169633 0.32998633 0.38327324 -0.031757295 0.3325562 0.31388077 0.22431663 0.42433155 0.4996639 0.43529382 0.35526282 0.40610778 0.30309343 0.1889894 0.02410683 0.029709712 0.38148588 0.39986628 0.44371796 0.41671845 -0.072873466 0.27734458 0.47291225 0.42110595 0.58355284 -0.04103224 0.10641351 0.51811135 0.4348244 0.29863873 0.58518684 0.343637 0.39522377 -0.0064491797 -0.18354407 0.54134136 0.4092626 0.25106856 -0.30720595 0.7448955 0.4813512 0.44835395 0.7962123 0.81425893 0.6674069 0.6125945 0.42164856 -0.13968506 0.034932137 0.85053444 0.8659115 0.7692927 0.27193162 0.07698092 0.18546021 -0.08971147 0.20968781 0.1372918 0.15152034 0.108599514 0.16743179 0.3890456 0.21148878 0.44801182 0.42275894 0.20890173 0.39371938 0.17696638 0.3894987 0.38835979 0.054949045 0.051043093 0.37853658 0.35319227 0.03431056 0.33336467 0.0631053 0.041760832 0.04480896 0.6032618 0.10313095 0.5758034 0.708117 0.688251 0.6173784 0.5575988 0.078147024 -0.12239701 0.18879215 0.6193471 0.7646922 0.50848264 0.47900814 0.41860628 0.35575533 0.28377557 0.16153868 -0.06967537 0.078403756 0.42174405 0.6504881 0.6902424 0.7561864 0.7174586 0.11909738 0.12642984 0.08778588 0.03848115 0.5003271 0.51833594 0.666065 0.6914755 0.7188022 0.74240154 0.74062955 0.14748628 0.16891402 0.23995934 0.34972003 0.46552062 0.5253117 0.43736652 0.3752989 0.3332451 0.19775927 0.2360785 0.32112595 0.46967375 0.34840965 0.38430014 0.36862075 0.36742312 0.37740916 0.35006547 0.23982973 0.40860814 0.2066821 0.39745423 0.4556362 0.19577214 0.17003088 0.6127935 0.60325277 0.5067855 0.48199654 0.3471417 0.257196 0.4269166 0.52848303 0.59698343 0.6034967 0.5998906 0.55294144 0.49968112 0.3520991 0.49221617 0.61684877 0.5680705 0.5703204 -0.019085646 0.32899755 0.37381637 0.67503035 0.6949321 0.5316318 0.53194964 0.4961279 0.4299298 -0.06647901 0.08356488 0.14478007 0.2789518 0.46248215 0.6445626 0.5144138 0.51232594 0.14134692 0.10520069 0.040485024 0.09684067 0.10635928 0.5042064 0.47893792 0.4829331 0.50901073 0.47814497 0.44159675 0.35466808 0.34012872 0.31896636 0.46779788 0.4066335 0.33422267 0.30649948 0.10421622 0.072911896 0.12863547 0.49672675 0.53341603 0.45442045 0.43314552 0.06616386 0.33384454 0.49511528 0.5421417 0.5872381 0.57186425 0.18781374 0.35456198 0.39828014 0.41427776 0.047002528 0.11310239 0.11994254 -0.014747664 0.5102332 0.302756 0.3024842 0.29526263 0.13550273 0.37739974 0.33604708 0.3240717 0.34582186 0.42916825 0.18259113 0.25795594 0.36366552 0.2783732 0.34240034 -0.18865865 0.32602748 0.134686 0.40398145 0.24270135 -0.17963377 -0.19061783 0.46798694 -0.051741004 0.1417208 -0.19363002 -0.23663004 -0.29501677 0.59308267 0.41095364 0.2228299 0.21298996 0.29969797 0.4083177 -0.10740693 -0.2809217 -0.27804375 0.67599285 0.64355576 0.5246433 0.4345674 0.39908853 0.37836373 -0.11237259 -0.0016433708 0.7083214 0.7717707 0.4614689 0.40563494 0.09515905 0.1657721 0.19731379 -0.075121164 0.22388867 -0.15564972 -0.10941161 0.20697594 -0.09523361 -0.08649651 0.11472523 0.18677157 0.18033552 0.3121462 0.19786234 0.37072372 0.37905955 0.37048042 -0.19285983 0.19200793 0.10310383 0.10639809 0.35749215 0.30008006 0.19490866 0.10625952 0.23527873 0.027541758 0.0500165 0.109093115 0.2819397 0.8217646 0.4913272 0.4005258 0.668658 0.6754156 0.7783616 0.86024666 0.59384614 0.29573706 0.6697651 0.71311104 0.77045417 0.8652917 0.82455575 0.57431513 0.5459351 0.4768256 0.43052992 0.35212532 0.29378328 0.0016728714 0.06734576 0.43345237 0.68165445 0.7155392 0.78788686 0.8214743 0.81433225 0.56544566 0.5084041 0.47181088 0.103538886 0.114686385 0.110318206 0.51905346 0.7500148 0.7851761 0.36053413 0.53320575 0.5276381 0.524236 0.5044613 0.2876781 0.21641512 0.27274805 0.36331058 0.4805146 0.51390815 0.55802155 0.55028296 0.50961787 0.41831023 0.32152355 0.56820405 0.55639744 0.25413322 0.25671193 0.25509226 0.29422617 0.29145843 0.25532344 0.20564125 0.23343712 0.3176443 0.26340216 0.21968077 0.3015009 0.16092902 0.11377358 0.1644398 0.11215025 0.1299516 0.588465 0.60795856 0.5863607 0.51686597 0.36462316 0.46030927 0.59144616 0.6115871 0.5476569 0.4292645 0.56936496 0.68068075 0.52329314 -0.089903206 -0.2216215 0.21754768 0.6264492 0.47595596 -0.034014165 -0.07381618 0.055852734 0.1884165 0.48915005 0.18477915 0.46317172 0.5303544 0.020588808 0.045372702 0.1060119 0.07055556 0.54973835 0.5584555 0.5349107 0.443425 0.