# vtk DataFile Version 2.0
Really cool data
ASCII
DATASET POLYDATA
POINTS 10106 float
18.35065 52.09098 -11.358221
18.396961 52.13088 -10.888135
18.313078 52.68087 -12.190691
18.21948 52.503006 -11.454251
18.33036 52.46253 -10.824326
18.324762 53.121353 -12.228115
18.29872 53.249973 -11.4991665
19.08108 51.417072 -11.296548
19.048319 52.029247 -12.74014
18.784002 51.910305 -12.260699
18.64892 51.727768 -11.3897085
18.659824 51.912056 -10.660855
18.936934 52.106064 -10.168036
18.823671 52.760506 -12.966554
18.55949 52.500294 -12.581962
18.53837 52.554558 -10.453732
18.90406 52.652187 -10.099496
18.787754 53.277096 -12.947958
18.54501 53.50516 -12.56441
18.547129 53.612328 -11.237651
18.609196 53.368896 -10.721507
19.038176 53.184574 -10.109219
19.039753 53.896427 -12.845722
18.7685 53.896065 -12.420591
18.691774 53.94624 -11.701752
19.255445 53.819725 -10.306344
20.369257 25.939669 -2.4006848
20.341381 26.16234 -1.7424246
20.3631 26.649422 -3.0284626
20.20141 26.60205 -2.3270953
20.287998 26.504246 -1.6819813
20.36032 26.957785 -2.9097445
20.26259 27.03551 -2.2696483
20.2736 27.013493 -1.891027
19.467773 51.336132 -10.789499
19.98701 51.69099 -9.568197
20.223083 52.01569 -9.101149
19.356897 52.46238 -13.13107
19.656528 52.464603 -9.409878
20.023615 52.354652 -9.128213
19.74708 53.44101 -9.671161
20.10385 53.012634 -9.169496
19.426626 54.110996 -12.9779825
19.340557 54.381985 -12.241867
19.736399 54.288933 -10.707017
19.711676 53.811504 -10.057454
19.880566 54.76771 -12.5836525
19.783903 54.658417 -11.533694
21.265854 24.018017 5.65564
21.310553 24.005035 6.009392
21.144623 25.019154 -4.1063643
21.140461 24.933987 -3.5149217
21.055325 25.078135 -2.715128
21.084223 25.257492 -1.9167362
21.266195 24.614252 5.0184703
21.178307 24.525726 5.569095
21.250181 24.50204 6.0567813
21.25924 25.480509 -4.773255
21.012775 25.44367 -4.24085
20.703657 25.616959 -3.3292773
20.535702 25.662405 -2.5009682
20.619728 25.75636 -1.7090327
21.014141 25.86035 -1.151207
21.416557 24.91858 4.7474403
21.267979 25.027933 5.607032
21.31203 25.02471 6.0199723
21.31727 27.058935 -20.85088
21.299873 26.972258 -20.423424
21.351725 26.955467 -19.95667
20.934622 26.325483 -4.236851
20.47486 26.3029 -3.3822188
20.441353 26.690737 -1.3509136
20.551321 26.622915 -1.2519001
21.280573 27.495983 -21.004591
21.084084 27.614271 -20.45496
21.183334 27.540405 -19.733221
21.189064 27.06184 -4.402813
20.899422 27.26348 -3.404094
20.54102 27.548306 -2.0816886
20.50145 27.129597 -1.4722946
20.687773 26.983717 -1.2057596
21.28694 28.40665 -21.082878
21.006838 28.474194 -20.468588
21.074211 28.61677 -19.632168
21.332653 28.82522 -19.051989
20.897245 27.725935 -2.5748675
20.872215 27.687899 -1.832205
21.244307 29.498667 -20.923452
21.03496 29.60924 -20.334759
21.0778 29.526186 -19.669277
21.313143 29.377348 -19.094553
21.270199 29.997063 -20.833345
21.208754 30.145565 -20.370352
21.254087 30.126995 -19.695799
21.05338 32.090836 -3.3146293
21.107906 32.12733 -2.5100071
21.12079 32.696056 -4.073375
20.772121 32.719425 -3.2932942
20.750774 32.731716 -2.6541584
20.913263 32.813816 -2.0688586
21.017569 33.473564 -3.992742
20.718224 33.439365 -3.3401208
20.615286 33.489193 -2.5399685
20.882877 33.572556 -1.882148
21.214096 34.05915 -4.1155934
20.853699 34.057903 -3.3493326
20.84758 34.21309 -2.4990184
21.001686 34.145115 -1.9493134
21.07276 34.682976 -2.9494567
21.256 34.72071 -2.509028
21.422075 48.662518 -13.027119
21.41156 48.442345 -12.659986
21.368406 49.49606 -12.913543
21.272612 49.64127 -12.126545
20.85489 51.13553 -9.944755
20.690195 51.750824 -12.865712
20.70157 51.879356 -8.921093
20.655392 52.503975 -8.767263
20.689775 53.15511 -8.89466
20.786163 54.624363 -13.898674
20.499777 54.586193 -10.382458
20.78569 54.19016 -9.7025585
20.791876 53.790787 -9.252268
20.730042 54.98014 -13.4350815
20.7103 55.279182 -12.665531
20.71038 54.653862 -10.377357
22.053185 23.39252 5.00365
21.95043 23.295607 5.4712954
22.104235 23.291796 6.278799
22.081266 24.276834 -4.100808
21.76593 24.378418 -3.5185165
22.142729 24.385868 -2.9501636
22.101645 23.903484 3.9792788
21.723663 23.699299 4.861171
21.566824 23.609247 5.544104
21.685326 23.718246 6.2940025
22.10427 23.837759 6.8330183
22.456596 24.642925 -8.460453
21.728785 24.937366 -4.862177
21.5648 24.69661 -4.345187
21.511225 24.588673 -3.5385966
21.820004 24.611553 -2.4628148
21.71747 24.939354 -1.7286469
22.225536 24.639416 3.2143128
21.954948 24.507471 3.757028
21.49974 24.80911 4.4263883
21.510622 24.561653 6.468732
21.844461 24.488266 6.7710533
21.99106 26.32666 -20.405449
22.093279 26.333748 -19.676085
21.498684 25.756294 -5.034331
21.655258 25.747736 -0.82265306
22.13568 26.048042 -0.44353116
22.25932 25.292213 3.046858
21.856184 25.558596 3.8121893
21.577005 25.305779 4.7907777
21.577303 25.436075 5.5683017
21.687265 25.182117 6.2761645
22.02673 25.023079 6.7182574
22.11081 27.144016 -21.58594
21.78291 26.856272 -21.159475
21.635202 26.619558 -20.478601
21.635656 26.726704 -19.814396
21.990225 27.041626 -18.83437
21.516918 26.479998 -5.038455
22.171623 25.972858 3.6727695
21.956352 25.859869 4.5921516
22.019186 25.90598 5.2403226
22.026236 25.63501 6.0303187
21.933105 27.513075 -21.596296
21.595098 27.406414 -21.323614
21.82288 27.4747 -18.734486
22.057844 27.764801 -18.314726
21.453623 27.289711 -4.5462947
21.83114 27.343075 -0.88002455
21.98157 28.05954 -21.599083
21.66184 28.530579 -21.366314
21.604366 28.573965 -18.723675
22.091494 28.554127 -18.226952
22.16557 28.133772 -4.1104097
22.200058 28.092981 -2.9718778
21.362026 27.775002 -1.6318916
21.65973 29.551497 -21.236046
21.701572 29.483543 -18.669182
21.608402 30.192308 -20.935326
21.472443 30.425558 -20.523623
21.537348 30.4328 -19.544281
21.835451 30.232788 -18.936829
22.461615 31.04862 -7.2513485
22.22093 30.980047 -2.9580772
22.418192 30.617743 -1.7681453
22.053667 30.625315 -20.758568
21.829336 30.711184 -20.368528
21.787302 30.725044 -19.869537
22.322172 31.688202 -7.541426
22.347105 31.918932 -6.748171
22.358328 31.487772 -4.901589
22.382908 31.489649 -0.6554022
22.45993 32.141617 -7.9828544
22.258245 32.381004 -7.337384
22.366934 32.362076 -6.0000377
21.510908 32.95588 -4.7904887
21.58993 32.57021 -4.4668527
21.38768 32.722477 -1.598558
21.620445 33.00971 -1.3246598
22.410524 33.338356 -7.449684
22.02147 33.356075 -6.2540245
21.80305 33.835587 -5.6356583
21.3303 33.57732 -1.4692814
21.604492 33.47387 -1.373501
22.192265 34.03568 -7.001265
22.123041 34.346935 -6.3437862
21.847229 34.393997 -5.317858
21.501835 34.383762 -4.260167
21.465967 34.292995 -1.6945652
22.318642 34.825413 -6.3710713
22.27999 35.139225 -5.399299
22.018423 35.124477 -4.2577047
21.809507 35.214943 -3.3302295
21.783602 35.125885 -2.487613
21.646545 34.80162 -2.0708895
22.134169 38.966537 -9.321956
22.042505 38.845745 -8.643022
22.186003 38.94842 -7.790279
22.233532 39.606922 -9.861171
21.87894 39.620056 -9.218657
21.682287 39.6859 -8.362769
21.839771 39.79043 -7.706732
22.084507 39.810986 -7.2929416
22.356335 40.314583 -10.005235
21.8349 40.18309 -9.133649
21.68809 40.20277 -8.43444
21.888475 40.262897 -7.6773815
22.131794 40.335423 -7.309813
22.33083 41.002438 -9.104249
22.047913 41.07516 -8.256408
22.2335 41.235172 -7.826853
22.244617 45.59656 -11.85856
22.072826 46.62096 -13.306413
21.896526 46.63717 -12.639684
22.027472 46.365807 -11.680849
22.345522 46.450493 -10.996621
22.289394 47.970455 -14.045881
21.713064 47.728294 -13.18627
21.624739 47.59496 -12.7557
22.135544 47.477715 -11.01167
22.084595 48.390812 -13.955706
21.72081 48.33523 -13.521843
21.55004 48.96348 -12.230053
21.538658 48.71486 -11.716066
21.985615 48.538723 -10.69514
22.037937 49.200466 -10.505849
22.046955 49.400345 -10.305516
22.404453 50.595253 -16.029736
21.258617 51.044277 -9.741133
22.156887 51.364777 -15.238887
21.989218 51.493618 -14.501885
21.297726 51.870636 -8.796383
21.91614 52.538353 -15.342679
21.359951 52.485123 -8.643575
22.197857 53.313393 -15.735777
21.695097 53.308224 -15.146151
21.386856 53.2023 -8.780097
22.056526 54.249508 -15.146148
21.691835 54.093075 -9.447399
21.523657 54.029385 -9.284601
22.06916 54.877743 -14.822027
22.06047 55.41502 -14.30006
21.693224 55.412823 -13.430285
21.3519 55.544502 -12.076953
21.252443 55.428646 -11.330702
21.533268 55.183228 -10.842528
21.63509 54.85092 -10.246368
21.581396 55.710407 -12.438361
21.634233 55.619713 -11.849699
22.84137 23.355293 4.121234
22.624874 23.135006 4.740414
22.610987 22.998074 5.7083907
22.60076 23.10552 6.2783785
22.750845 23.316954 6.7833858
23.016249 23.892012 -9.201589
22.866726 23.998598 -8.549725
23.029005 24.130774 -7.9205728
22.449686 24.207487 -4.094554
22.366776 24.2083 -3.5945756
22.722881 24.358334 -2.3552995
22.820751 23.92183 3.26167
22.66665 23.705683 3.698066
22.308512 23.389261 6.632246
22.646069 23.683403 6.973983
23.128115 24.480968 -9.936605
22.670189 24.735294 -9.328167
22.561506 24.64851 -8.688399
22.713623 24.629335 -7.881281
22.677052 24.712883 -5.1429534
22.358727 24.5868 -2.2064521
22.151632 24.764982 -1.6001697
22.754663 25.255863 -0.7110411
22.562584 24.409912 7.081758
22.451593 26.317127 -20.917171
22.527224 26.18253 -20.421919
22.479862 26.139431 -19.620161
22.914507 26.141264 -18.76357
23.269657 25.382399 -10.043818
22.713196 25.22036 -9.291223
22.582838 25.531824 -8.273566
22.56057 25.546795 -0.46149006
22.734837 25.91818 -0.36976817
22.582039 25.491495 2.6527085
22.352875 25.436321 6.5032916
22.633179 25.113937 6.86375
22.632391 26.98916 -21.611395
22.294565 26.767067 -21.377184
22.539978 26.478567 -18.696959
22.776371 26.85463 -18.116634
22.882853 25.935303 -8.938247
22.907885 26.093794 -8.627051
22.768497 25.834064 -7.98228
22.616821 26.678047 -5.8414164
22.407528 26.233187 3.8287065
22.590471 26.319904 4.461826
22.627089 26.172548 5.338437
22.651783 25.810978 6.1391344
22.39248 27.591763 -21.747639
22.643808 27.535952 -17.952923
23.22197 27.472101 -6.8781056
22.782042 27.573055 -6.0814357
22.736021 27.699823 -5.6608644
22.979395 27.82742 -0.47337353
23.241821 27.105854 -0.35950497
[...]
POINT_DATA 10106
SCALARS features_00 float 1
LOOKUP_TABLE default
0.7964232 0.7814304 0.8122183 0.8129263 0.7878189 0.8088511 0.8189889 0.72076905 0.73617744 0.7657225 0.76557094 0.7425787 0.7051054 0.7648525 0.7936382 0.7569308 0.7152043 0.7623247 0.78374493 0.80639243 0.77759254 0.7024243 0.69942594 0.7440539 0.7725289 0.67393345 0.7411318 0.74908376 0.71218604 0.7386557 0.7465406 0.70721066 0.7249447 0.730571 0.66591936 0.61946326 0.6436875 0.6947819 0.6564592 0.6516532 0.6283456 0.6408349 0.6040849 0.63612735 0.60234344 0.61178946 0.51337314 0.5803253 0.9476544 0.9673668 0.5987297 0.6008544 0.63711137 0.68646026 0.87017787 0.924394 0.9558077 0.59236616 0.61779666 0.67711115 0.7278862 0.747349 0.7399549 0.8116285 0.8766063 0.9028226 0.7651559 0.7675915 0.74640214 0.5940577 0.6889162 0.7383357 0.73689455 0.7728069 0.8084723 0.7723149 0.4996618 0.6274692 0.6963613 0.7180662 0.71208346 0.80107826 0.86721057 0.81208074 0.6917908 0.6544622 0.67674625 0.8353077 0.86246896 0.8386746 0.7467677 0.8188516 0.8293158 0.83031213 0.53406286 0.6247982 0.47730154 0.64885044 0.7335284 0.7200148 0.5298654 0.6779466 0.7768115 0.74958843 0.4894722 0.66338956 0.7527679 0.7471092 0.65639716 0.67850834 0.26710206 0.28778672 0.26002154 0.31073374 0.52442414 0.36946362 0.649323 0.65670574 0.6360353 0.37071976 0.47380576 0.5055501 0.5699657 0.40843177 0.43866643 0.45469928 0.80778474 0.8694204 0.9097847 0.5007231 0.5196307 0.47526002 0.6928389 0.8462806 0.92200655 0.9626869 0.95809233 0.62423986 0.5589418 0.5565802 0.55087805 0.51830924 0.5823996 0.64077604 0.71956277 0.7924966 0.96638566 0.9743203 0.70643616 0.6615086 0.5516176 0.6730715 0.5921298 0.65716946 0.6827742 0.76686656 0.8165895 0.8872287 0.91240335 0.6681836 0.7206574 0.7395535 0.71316135 0.5942507 0.44309267 0.61759067 0.6757138 0.70750606 0.7923014 0.6829355 0.7346173 0.59035206 0.50713074 0.4406901 0.5522398 0.6731814 0.74488956 0.59843725 0.49179518 0.42697018 0.50564593 0.6339339 0.77214026 0.6438323 0.7802592 0.79739964 0.81156504 0.7751658 0.22989348 0.21119867 0.30725217 0.7354965 0.7663013 0.7803316 0.27347904 0.23320982 0.113596655 0.28756633 0.28835738 0.2794961 0.18123779 0.31951508 0.33403552 0.5840826 0.5361377 0.25613743 0.23255223 0.27663538 0.6663378 0.60047543 0.24591821 0.27233747 0.3144409 0.44198024 0.6891837 0.27780584 0.30729333 0.41012353 0.538429 0.6111104 0.6551012 0.4417716 0.5959393 0.6674865 0.34477884 0.5093837 0.678267 0.68809724 0.6517745 0.31692266 0.5325096 0.6698892 0.684113 0.6478646 0.48203847 0.6431571 0.63827884 0.34688747 0.26394626 0.34454328 0.37159157 0.32072654 0.16695338 0.23870589 0.27894238 0.32703435 0.1753292 0.21988107 0.3344552 0.35552597 0.32038763 0.27795982 0.23441535 0.22162017 0.49529946 0.27997094 0.20245528 0.65012467 0.30531114 0.6453961 0.33898103 0.3204164 0.6154846 0.35707188 0.48336172 0.5074492 0.3794605 0.41770667 0.43696514 0.4485032 0.43933487 0.4196306 0.40982613 0.45074588 0.44732562 0.5597707 0.6796045 0.8046397 0.84424883 0.86898124 0.5714444 0.5732116 0.5348517 0.4666701 0.45861265 0.39816743 0.49263668 0.5456885 0.913572 0.9070279 0.55818594 0.6016412 0.61978203 0.60122085 0.4730739 0.45948339 0.5207277 0.52070487 0.95242023 0.66266286 0.6544218 0.61753935 0.5057306 0.49733356 0.57454354 0.54606557 0.5473051 0.5110872 0.6091457 0.81141543 0.86034346 0.61222506 0.6614784 0.53611976 0.4461823 0.45633367 0.38687512 0.4164958 0.10512224 0.55076665 0.51130956 0.59084225 0.6938466 0.615738 0.43237942 -0.13119657 -0.023780553 0.06711744 -0.023535267 0.13771504 0.32463583 0.59874636 0.37839457 0.037283905 -0.031225905 -0.098560505 0.09316413 0.47773153 0.12032705 0.61979645 0.6497309 0.36477476 0.24098903 0.2822495 0.074095115 0.07803397 0.06588195 0.18055262 0.3006657 0.26305407 0.6719866 0.20917453 0.2500522 0.19530575 0.22283608 0.22074924 0.15825857 0.05808043 0.1585151 0.22564809 0.71699595 0.70355463 0.72326756 0.71456695 0.24110065 0.27127463 0.17856196 0.267164 0.24549061 0.22765288 0.2775461 0.2337434 0.19561742 0.23147154 0.42392743 0.20067021 0.1791668 0.22807094 0.51807845 0.24269164 0.19422188 0.12783492 0.2244845 0.28047496 0.28929812 0.38024276 0.5076576 0.5675587 0.5521033 0.2393477 0.19284913 0.13661687 0.28214228 0.41484934 0.4714116 0.524166 0.49597034 0.22750762 0.26708886 0.25273305 0.21885866 0.35272384 0.20161107 0.23741116 0.6386227 0.118980095 0.14446132 0.21731679 0.5946533 0.080117896 0.14348805 0.23876068 0.5963145 0.06696729 0.1007144 0.19124225 0.34002686 0.5329001 0.19742943 0.09984462 0.048739303 0.23792273 0.4185533 0.5380328 0.5318943 0.44145662 0.26762953 0.2542467 0.2071788 0.19205634 0.42471218 0.27478415 0.2732589 0.26552382 0.2915144 0.29109028 0.32879925 0.29817408 0.07535755 0.20889041 0.2882309 0.27567166 0.15203431 0.28510997 0.098299205 0.11306063 0.3040371 0.18431526 0.11440852 0.39079654 0.21759574 0.47736102 0.31833878 0.51465136 0.3438192 0.5451625 0.35374868 0.3620451 0.42845255 0.48397195 0.38092172 0.40929988 0.39782235 0.43073976 0.46080783 0.47757936 0.46399856 0.4428883 0.512144 0.5032127 0.4729811 0.3842046 0.43149912 0.5571707 0.6603792 0.7411852 0.81164706 0.5051227 0.5172105 0.5311096 0.48912495 0.44470894 0.3666132 0.3326065 0.35398105 0.8330314 0.39801905 0.5393672 0.20243275 0.21210739 0.33172876 0.32663715 0.16546793 0.33153474 0.87707055 0.52813834 0.52858275 0.49380323 0.40703744 0.36202893 0.23852143 0.43243787 0.7043377 0.75380397 0.5178992 0.5010228 0.32533222 0.17568903 0.12678564 0.10230323 0.3576066 0.48618358 0.4713711 0.33004734 0.15307093 0.26288056 0.2858201 0.2670253 0.16769004 -0.010401312 -0.10599051 -0.09165372 -0.09115358 0.0600636 0.13313235 0.14653382 0.24943078 0.47166607 0.1811046 0.25550842 0.2957913 0.31114542 0.31181058 0.24898882 0.02877669 0.014608972 0.005058989 0.14724486 0.15770152 0.3749429 0.35619915 0.04730484 0.29005218 0.30008686 0.28179967 0.10852803 0.004364848 0.113074034 0.5660806 0.5409721 0.21213745 0.24051394 0.25828105 0.20405212 0.14112584 0.11931235 0.13490874 0.6275735 0.63448286 0.31959075 0.26428342 0.23872384 0.19178334 0.20236707 0.17200762 0.351104 0.28742045 0.26525113 0.18906063 0.18688081 0.18248782 0.18985224 0.16651613 0.15209335 0.21184388 0.20159984 0.36505488 0.4097758 0.23279607 0.22639655 0.42978412 0.2864254 0.18238488 0.20054786 0.15656383 0.2760619 0.444618 0.17507333 0.41710848 -0.0037749931 0.10326325 0.45850083 0.4338044 0.20135133 0.08961724 0.4919777 0.29844725 0.07808615 0.06192774 0.06957122 0.47218913 0.21850301 0.0763244 0.051824987 0.3925751 0.30067945 0.22070889 0.07406883 0.40569055 0.255474 0.12920696 0.026089638 0.41352695 0.43338957 0.37757578 0.26837704 0.16419178 0.201368 0.2638895 0.041714847 0.24050066 0.111447826 0.28535122 0.35886994 0.39196545 0.342505 0.19911802 0.4585516 0.22251382 0.42528945 0.21529669 0.36250272 0.29036847 0.25381315 0.42513198 0.46008283 0.33063805 0.36051595 0.38756174 0.36312583 0.45665768 0.47700372 0.45550936 0.4384402 0.42665306 0.4424764 0.28344005 0.33580425 0.36120796 0.34130675 0.5138214 0.5003191 0.42773432 0.21297233 0.15015624 0.27358168 0.28102008 0.30475843 0.26390782 0.38206148 0.50795454 0.5938047 0.49087965 0.50573945 0.0024876185 -0.07234511 0.13578443 0.68767434 0.67722404 0.2912335 0.6301359 0.3856439 0.35422322 0.34456772 0.27631825 0.0956457 0.037779093 0.007847674 -0.22433949 0.71461165 0.41204843 -0.08858452 -0.14135742 -0.0059901085 0.34658754 0.33291975 0.13702078 0.13094342 0.12069613 0.10319979 0.15674132 0.23448667 0.09531662 0.35283265 0.10366832 0.036089383 -0.04492163 0.049305014 0.055572774 0.23473337 0.23803605 0.1830157 0.09485453 -0.0050913244 0.11101881 0.31644806 0.363405 0.3757078 0.3442187 0.24439998 0.16391706 0.073863864 0.108385205 0.15512249 0.13849986 0.3535551 0.38548133 0.36403736 0.30540377 0.23061115 0.14012021 0.10575697 0.19118887 0.2690118 0.30960977 0.5507024 0.4131664 0.31157035 0.21570727 0.2064361 0.23489347 0.03221588 0.08859362 0.22451024 0.6373648 0.60510945 0.47787017 0.34573105 0.20251255 0.018116813 0.6239494 0.57164645 0.4445092 0.14833638 0.29129493 0.5672795 0.5381168 0.44005385 0.4722472 0.46820045 0.31458253 0.37953535 0.24436605 0.20519319 0.26544085 0.28523898 0.15790233 0.24337761 0.2777435 0.2945423 0.2314016 0.10696816 0.32018495 0.44147342 0.46048957 0.40641463 0.48657137 0.4685382 0.39818943 0.50238085 0.46014795 0.41057634 0.51892185 0.39619398 0.21746679 0.501132 0.16340265 0.27525848 0.3391845 0.38997787 0.33851036 0.36954442 0.37533572 0.35582784 0.46717748 0.43369338 0.27339485 0.34516242 0.3664983 0.34529546 0.23710401 0.17901582 0.30304667 0.3916163 0.49028975 0.4988978 0.14012143 0.058837276 -0.11698331 0.08713586 0.36100686 0.46250638 0.3973639 0.49519542 -0.14618762 -0.27730784 0.034910467 0.37390766 0.15007576 0.24677128 0.25457168 0.23294422 0.34157407 0.3478081 0.25225776 -0.08622789 0.051242005 0.15310258 0.04126863 -0.031177916 -0.08637264 0.45802605 0.35011277 0.25983834 0.26678747 0.32050833 0.07313019 0.08863754 0.17905712 0.014381807 0.08015816 0.010667741 -0.011799147 0.06638737 0.21423325 -0.033828445 -0.41560206 -0.35211593 0.038699903 -0.043983396 0.23319463 0.29326177 0.14655258 -0.015114593 0.35594213 0.3022342 0.059136186 0.11363051 -0.009320281 0.3468396 0.38189515 0.11700353 -9.7792596e-05 0.54356676 0.5588954 0.6021228 0.30529708 0.24567698 -0.043797903 0.4361452 0.5765821 0.61876655 0.6339105 0.57715213 0.38908234 0.0052946266 0.05497113 0.08182723 0.5047597 0.56226945 0.60814905 0.66071105 -0.046665598 0.037236635 0.625986 -0.23747925 0.56025076 -0.051011346 0.48653132 0.41912162 0.4350096 0.365629 0.33087033 0.4206764 0.20629326 0.25454247 0.4045351 0.048181556 0.09477644 0.15397152 0.39741743 0.058526307 0.1456307 0.32828623 0.41692907 0.46642393 -0.08406307 0.24394865 0.4196177 0.32967007 0.4775995 0.47134507 0.5117571 0.61016667 0.5314272 0.52965355 0.52387506 0.64631075 0.55491054 0.5311551 0.6853842 0.597868 0.29157764 0.44171706 0.12845959 0.4305778 0.06509738 0.14926127 0.119759865 0.30908448 0.4009289 0.51572585 0.8299558 0.8514385 0.8619516 0.8770612 0.92103124 0.8796109 0.9154738 0.96749926 1.0 0.87056005 0.90671265 0.9503102 0.3614819 0.36436304 0.35473937 0.33081627 0.34901336 0.36835152 0.37574166 0.3425901 0.2558193 0.21311131 0.2192779 0.31883746 0.36009443 0.34630737 0.32402772 0.31757444 0.21501638 0.110146195 0.03578329 0.17115706 0.2509758 0.38417953 0.5219915 0.5475 0.53786933 0.49226964 0.42509556 0.374981 -0.18556131 0.08394864 0.1313628 0.23527409 0.47274745 0.4940257 0.47892678 0.45996928 -0.055682674 0.18377465 0.15129879 0.26090533 0.23738056 -0.00869396 -0.11212084 0.34330082 0.25090575 0.17421317 0.33472362 0.33970523 0.25317803 0.10326397 0.3168414 0.22835457 0.36033773 0.5056711 0.5016637 0.6373874 0.6221153 0.63127756 0.13299718 0.115243174 0.33072177 0.51074123 0.54796374 0.072766185 -0.21964207 -0.095288105 0.31220028 0.06638771 -0.22863951 0.13777098 0.19283569 -0.59134984 0.0017952397 -0.0072779506 0.19129378 0.23645654 -0.10470874 -0.57814026 0.21207201 0.2594148 0.16019483 0.24573669 0.25941783 0.2922295 -0.012451517 -0.23935287 -0.45032707 -0.088720486 0.25647926 0.3574556 0.4673669 0.5551966 0.25926197 0.26410082 0.14596754 -0.28105602 -0.2952122 -0.6490886 -0.111181 -0.09416866 0.24404183 0.24217477 0.6074517 0.6481668 0.16074914 -0.09187572 0.050240003 0.20878042 0.63409805 0.6585674 0.67354417 0.5234368 0.09942794 0.30574906 0.44587094 0.52866966 0.59665674 0.63016117 0.6482831 0.5547142 0.13194416 0.175677 0.15054768 0.35619932 0.5120613 0.541988 0.54760593 -0.067962706 -0.0082165 0.18274766 0.52754265 0.23423602 0.47202232 0.35963053 0.5092028 0.22420542 0.5363456 -0.071888864 0.49667263 0.5467473 0.12234478 0.4726172 0.5355561 0.20139566 0.1715484 0.48776838 0.5394231 -0.14415911 0.46539307 0.45827 0.24413037 0.3559677 0.2577112 0.5040819 0.55504555 0.4825064 0.5316028 0.6751782 0.5290786 0.77430236 -0.25162455 0.31404477 0.48093292 0.52673244 0.76534414 0.4525013 0.7383827 0.632638 0.036764815 -0.077968895 0.033767514 -0.066793755 0.13191158 0.30623633 0.5572805 0.5703213 0.63457936 0.63421154 0.59229887 0.7138902 0.81881857 0.7965747 0.7809012 0.80494356 0.78694606 0.8294111 0.9316834 0.7867664 0.84465575 0.9951394 0.94643444 0.8138638 0.876528 0.9333308 0.96991783 0.7801511 0.822122 0.8907486 0.3597699 0.3445237 0.35603908 0.35130352 0.33803236 0.071888454 0.34758133 0.393483 0.39706117 0.31679094 0.35088125 0.19415408 0.055734556 0.19042173 0.42203707 0.3827529 0.1738569 0.16042311 0.13688171 0.1788063 -0.0076867044 0.04817213 0.14248078 0.4839924 0.54691947 0.54748964 0.49777722 0.20623158 0.19305861 -0.1903952 0.36144912 0.248652 -0.14292495 0.008853719 0.21219581 0.19857344 0.017888859 -0.10109532 0.18023649 0.24748911 -0.014280021 0.4279017 -0.1935274 0.28516272 0.49055848 0.49222416 0.54893535 0.4948507 0.040191956 0.24812606 0.3754945 0.4150608 0.50741667 0.5745131 0.5770966 0.5968674 0.5679772 0.50902677 0.025917321 0.5466169 0.55938256 0.63622 0.6510745 0.6516342 0.5945574 0.56897867 0.5070875 0.15627924 0.5564649 0.5685546 0.6925488 0.70708525 0.69086564 0.63763434 0.6040925 0.07844857 0.07569458 0.029684253 0.30147594 0.4514972 0.522311 0.6504781 0.6488743 0.6198256 0.06271645 -0.20016204 0.3253699 0.41488433 0.45481145 0.100812145 0.14861023 -0.03955604 0.04680033 0.1925071 0.21641876 -0.4058095 0.22352491 0.24022904 0.24946104 0.3574947 0.534044 0.25142413 0.22416693 0.18098757 -0.65315294 -0.34960914 0.035183117 0.6438216 -0.23794031 -0.11172117 0.15058747 0.66247964 0.35110247 0.05893366 -0.1430376 0.060647458 0.19341409 0.58524346 0.6215875 0.34015512 0.23168477 0.09463534 0.24236777 0.2722879 0.3368133 0.49515474 0.49007887 0.4199254 0.20541736 -0.17467773 0.14840731 0.29106402 0.39268452 0.35896695 0.32346785 0.3132045 0.37096542 0.19606447 0.09454334 0.39218205 0.37974158 0.42878163 0.41640317 0.5037645 0.537108 0.29832774 0.22682256 0.56366444 0.33686462 0.17746642 0.5580601 0.28568658 0.5695096 0.5729759 0.24112035 0.4302165 0.5175375 0.55421275 0.013801105 0.15794659 0.578688 0.40678704 0.4789191 0.7267232 0.82245255 0.77770567 -0.1462447 0.744015 0.69429684 0.054493435 0.11803226 0.15740441 0.36523592 0.30888668 0.5817909 0.51998836 0.6651529 0.6205925 0.63869965 0.67101884 0.6914784 0.742427 0.72750676 0.6547931 0.6007532 0.80135614 0.7928039 0.70416915 0.68956256 0.73114586 0.64817023 0.75408894 0.72777563 0.67967343 0.6148135 0.7648695 0.69604254 0.7779796 0.8109684 0.69918543 0.83724403 0.7367526 0.6695826 0.88160306 0.73087054 0.7365619 0.8479084 0.8219458 0.6039168 0.68909013 0.7001413 0.61724234 0.5402906 0.6522275 0.658247 0.52624726 0.35377732 0.37409088 0.38143277 0.5916277 0.39313543 0.3435588 0.27943736 0.30716008 0.3172083 0.33933514 0.36631683 0.37600887 0.05962249 0.37276116 0.1870546 0.2854494 0.21677342 -0.060453672 0.49919146 0.43057007 0.1083758 -0.07376938 0.23085494 0.43602952 0.4612688 0.4023166 0.26567858 0.46525228 0.4493059 0.38611674 0.090809084 0.074628085 -0.3195789 -0.026533443 -0.03868223 0.33018118 0.27664098 0.1420249 0.3477862 0.2857789 -0.14567801 0.3427839 0.16462585 -0.06563782 -0.13771255 0.3443315 0.3475794 0.35306358 0.3106455 0.09095941 0.0650946 0.4285552 0.4303692 0.39975423 0.3918441 0.29489326 0.47075266 0.5108732 0.5384248 0.5454346 0.2968295 0.14699817 -0.029475585 0.5525327 0.61836815 0.06777671 0.53941464 0.5133465 0.5618684 0.63966286 0.3185501 0.083481155 0.0567782 0.4760493 0.5029168 0.6012621 0.57180846 0.57117116 0.5508759 0.022222824 0.0022203363 0.2394234 0.32289198 0.4410901 0.518467 0.05403334 0.14342171 0.2329813 0.27535978 0.3410393 0.291923 0.25813067 0.10912308 -0.39968082 0.5460981 0.25080422 -0.09621669 0.5930774 0.4540081 0.524705 0.33503157 0.31013888 0.091330096 -0.12673812 -0.04099667 -0.04184659 0.32624125 0.29788753 0.30468124 0.42548496 0.4561265 0.42645282 0.4066853 0.33983302 0.016384328 0.38339603 0.45849246 0.47181332 0.46388522 0.4393232 0.1627511 0.47513863 0.26684302 0.5046295 0.51989484 0.5111346 0.3369951 0.3492005 0.51141155 0.2843978 0.26182476 0.22759451 0.469821 0.5050847 -0.041004926 0.037197903 0.1668474 0.36179262 0.47637457 0.2217012 0.66357267 0.002872778 0.7918608 -0.13065884 0.76616496 0.6872203 0.47677362 0.08736364 0.10956738 0.14325933 0.24115726 0.18033619 0.42310286 0.60335207 0.70073783 0.67180187 0.7004194 0.6373519 0.64183295 0.63034207 0.746328 0.7778381 0.6012858 0.57857215 0.6049834 0.8101425 0.87114525 0.8571986 0.7811136 0.5328717 0.61227137 0.5068735 0.528018 0.5407545 0.28715357 0.6061084 0.633115 0.4105431 0.6995917 0.7509277 0.49922517 0.65337116 0.7090081 0.6947267 0.6134287 0.66038203 0.72237855 0.67454255 0.80121464 0.8044455 0.77892995 0.7233043 0.8355497 0.8395486 0.82114196 0.7319929 0.5886732 0.6472266 0.6940099 0.7957965 0.7481446 0.66204304 0.5139428 0.5826597 0.65922666 0.7005775 0.6188748 0.57563865 0.58618283 0.556395 0.39909008 0.47902223 0.5316772 0.49425456 0.4689452 0.30424 0.3726771 0.38411596 0.33879036 0.38710737 0.3187029 0.26738882 0.2661396 0.33151478 0.50476515 0.5070492 0.4775583 0.2075907 0.19045317 -0.11181587 0.284334 0.47948873 0.5019665 0.4546215 0.38126332 0.2679846 -0.06674236 0.04353595 0.21164483 0.39241257 0.4628915 0.27810103 0.18488017 0.18395711 0.2628273 0.36597764 0.18352501 -0.03952551 -0.089945376 -0.059281487 0.47890064 0.4644617 0.395014 0.28586894 0.32684952 0.011948116 -0.05277396 0.08310369 -0.17166638 -0.0040954514 0.4839409 0.46477532 0.39477015 0.31236476 0.2641671 0.23730418 0.19917694 -0.051366124 0.46815032 0.39496094 0.35280597 0.20279512 0.18824217 0.29046565 0.40051177 0.45083976 0.5135518 0.51247275 0.49644732 0.42019993 0.425193 0.5031864 0.49026406 0.07664755 0.37942222 0.49688 0.47699124 0.5131669 0.3743834 0.326226 0.048921235 -0.034858488 -0.10617997 0.15629464 0.23670614 0.37148178 0.46251076 0.46837372 0.3786455 0.18111868 -0.09250338 0.21564357 0.27532542 0.10705715 0.32552153 0.33274388 0.26965222 0.12154004 -0.055001006 0.1169092 0.16825397 0.13107531 0.026376193 0.17639855 -0.5319819 -0.3561508 -0.20601016 -0.011885598 0.2450296 0.20068787 0.10487799 -0.5421529 0.3623618 0.37628555 0.029983869 0.23470013 0.31387514 0.44065648 0.465543 0.457135 0.43813807 0.39688239 -0.14125536 0.4248786 0.4455128 0.44346657 0.43292993 0.3574377 0.35057583 0.39992437 0.32433444 0.21445481 0.3238133 0.45511836 0.19435611 -0.38999936 0.19622982 0.05017605 0.101257324 0.020179302 0.17947944 0.14802235 0.32217246 0.19854659 0.19229533 0.58998084 0.41005903 0.24094611 0.6019508 0.39190745 0.1268085 0.34793013 0.06918521 0.01784946 0.12180024 0.32033968 0.17127965 0.6035647 0.70488495 0.5281105 0.520704 0.7082522 0.5925497 0.61547524 0.55171436 0.46718237 0.7261827 0.64313227 0.6814474 0.4909355 0.60680634 0.5992832 0.49996752 0.7539233 0.78595304 0.6769194 0.61932504 0.51343185 0.570185 0.48507255 0.4094407 0.7982571 0.7964438 0.7630632 0.70953095 0.47191495 0.4017831 0.10931487 0.46547198 0.26199377 0.4537902 0.4665078 0.5022587 0.48383307 0.3910516 0.3065342 0.12890507 0.062856525 0.18322966 0.54310423 0.57911557 0.4208809 0.31828174 0.17137803 0.08590822 0.67313665 0.66370416 0.19606933 0.5738654 0.61771584 0.44440067 0.61038435 0.5468024 0.62297696 0.63505644 0.6304193 0.63036925 0.61448115 0.60626125 0.61341333 0.6032469 0.74315333 0.7019905 0.6507515 0.59168756 0.5760318 0.5796169 0.8704201 0.7955144 0.6563108 0.5902574 0.56155455 0.73756593 0.7588649 0.73484635 0.65756094 0.776093 0.7831457 0.75769264 0.6609891 0.54332656 0.8082335 0.6350049 0.5374304 0.5823282 0.67531353 0.7818483 0.70916545 0.52638954 0.49986708 0.51702595 0.6528282 0.5747049 0.53113604 0.5374774 0.47170818 0.33439523 0.45598406 0.43963462 0.46320254 0.4552369 0.2231535 0.32607043 0.3612132 0.32356715 0.24971476 0.23033625 0.2788926 0.3031626 0.34877977 0.33557355 0.13644332 0.18537162 0.21550752 0.30542886 0.5041496 0.4957312 0.4593851 0.43551576 0.13296023 0.0844832 0.08059413 0.37115005 0.30025998 -0.08680792 0.014050264 0.4317412 0.4201203 0.39503 0.19021198 0.2643626 0.033702075 -0.11036384 0.07316388 0.06252809 -0.05923897 -0.048678447 -0.21