# vtk DataFile Version 2.0
Really cool data
ASCII
DATASET POLYDATA
POINTS 10162 float
-26.806728 34.26457 1.3942033
-26.846205 35.03757 0.16873267
-26.980024 34.78341 0.6117832
-27.107666 34.798203 1.4848847
-26.949549 34.843407 2.353151
-26.787258 35.007866 2.7958896
-26.91176 35.662407 0.106495425
-27.200428 35.526127 0.64058524
-27.308142 35.539913 1.5413841
-27.130613 35.484318 2.3028502
-26.881058 35.538757 2.7673216
-26.781128 36.118076 0.16855344
-27.131159 36.07414 0.73482496
-27.127728 36.255035 1.3979214
-26.97138 36.079056 2.3316402
-26.79936 36.73121 1.6469954
-25.864925 33.24019 0.7512519
-25.731781 33.083305 1.2076099
-26.277288 33.68719 0.82383853
-26.385902 33.82787 1.5601568
-26.241507 34.075893 2.3136864
-26.125162 34.715633 -0.30198687
-26.544306 34.345085 0.49502555
-26.689564 34.480923 2.4807808
-26.469252 34.920326 2.9445198
-26.26585 35.476677 -0.3795157
-26.366154 35.434166 3.0352485
-26.142548 36.555054 0.096619144
-26.515259 36.50188 0.32096004
-26.311073 36.098995 2.9639916
-26.430193 36.862064 0.85877466
-26.209013 37.134792 1.2235442
-25.539501 39.01835 5.235826
-25.504175 39.387222 5.4167542
-24.763725 26.8263 -3.1450665
-24.771374 26.72721 -2.664354
-24.63313 26.8744 -2.071618
-24.723383 27.424864 -3.2307336
-24.813694 27.366306 -2.5627775
-24.680067 27.336477 -1.9962475
-24.584198 28.083921 -2.216769
-25.405184 33.186306 0.08816831
-25.474745 32.945324 0.920643
-25.252378 32.778362 1.4199429
-24.73492 34.126102 -1.6551046
-25.50149 33.67319 -0.36186033
-25.672543 33.410694 0.24024054
-25.115961 33.947155 2.6910138
-25.346624 34.345104 -1.123089
-25.395123 34.84118 3.0642831
-25.406866 35.215393 -1.1639075
-25.588268 35.936214 -0.6629654
-25.530571 36.995518 0.1743272
-25.563404 37.30651 1.3147793
-25.164879 38.3009 5.3668084
-25.427944 39.05317 4.982685
-25.345272 38.79401 5.488651
-25.030117 38.739418 6.174374
-24.711391 39.003628 6.7452674
-24.857819 39.631767 4.262966
-25.369543 39.693832 4.8165917
-25.447174 39.52358 5.595911
-25.161861 39.54206 6.2441716
-24.685875 39.303616 6.822375
-24.75759 40.71296 3.6549406
-25.114975 40.395184 4.737004
-25.292631 40.15525 5.574617
-24.900877 40.46309 6.247239
-24.643894 41.691654 2.3026972
-24.72848 41.604446 3.8066769
-24.81142 41.293846 4.786668
-24.81459 41.28447 5.5300164
-24.633764 41.183216 6.105501
-24.646355 42.16254 2.1011534
-24.659225 42.489376 2.7110622
-24.635958 42.373863 3.1971931
-24.619099 42.067276 4.0467267
-24.550276 42.871758 2.0165567
-24.558403 42.9735 2.336247
-24.165333 26.157984 -3.217558
-24.144773 26.026396 -2.5634968
-23.887135 26.072063 -1.8429595
-24.173237 26.776688 -3.7439282
-24.416403 26.577288 -3.4833508
-24.527046 26.435926 -2.407031
-24.26099 26.539158 -1.7952541
-23.850353 26.81797 -1.1371554
-24.318203 27.315361 -3.7193694
-24.443748 27.452408 -1.6074026
-24.004112 27.47127 -1.0080299
-24.399439 27.968454 -3.3760848
-24.400087 28.383654 -2.7020452
-24.324675 28.393023 -1.7547774
-23.853004 28.099363 -0.7775712
-23.726198 32.10318 1.9744145
-23.834034 32.948868 -2.2521174
-23.94183 32.68949 -1.5044268
-24.180902 32.479885 1.5459012
-23.902275 32.532455 2.440736
-24.533247 33.295403 -1.371186
-24.092453 34.767136 -2.4808404
-24.082947 36.856537 -2.0020378
-25.02013 36.119694 2.88901
-23.968723 37.569416 -2.960487
-24.014288 37.79109 -1.717909
-24.607471 36.853035 -0.35752034
-24.261562 37.225994 1.4913417
-24.746262 38.074417 5.2008014
-24.590725 38.218536 6.167157
-23.978758 38.403046 -3.5096016
-24.083107 38.16649 -2.8507898
-24.043077 38.3985 -1.8989356
-24.621294 38.340218 6.3194594
-23.973759 38.59526 7.162319
-23.977066 39.739372 -4.275708
-24.119888 39.542427 -3.5066485
-24.095795 39.032864 -2.5254953
-23.624445 39.971024 1.6052225
-24.162796 39.551495 3.203572
-24.347345 39.659317 7.0233364
-23.745472 40.09895 -4.8474693
-23.876692 40.58409 -4.3676524
-24.139824 40.521008 -3.6728377
-23.971437 40.91702 -2.2128832
-23.737768 40.865654 -0.7918674
-23.972948 40.51845 1.8687614
-24.318714 40.664234 2.4194279
-24.163538 40.41815 6.986043
-23.83235 41.45497 -3.9480588
-23.96671 41.59576 -3.5494094
-24.094942 41.911472 -2.494161
-24.0603 41.910988 -1.5867646
-24.11337 42.102173 -0.6734768
-23.979317 41.94194 0.08456232
-24.551493 41.645794 5.622506
-24.369123 41.454754 6.281841
-23.9474 41.196827 6.8796773
-23.67953 42.03826 -4.091189
-23.90427 42.561703 -3.1824625
-24.13672 42.69936 -2.27681
-24.131836 42.737797 -1.5493349
-24.09638 42.425182 -0.06116564
-24.225485 42.638687 0.8551495
-24.301586 42.42679 4.1381283
-24.27384 42.116005 5.502801
-23.948633 42.0135 6.1867228
-23.79644 43.16138 -3.0115364
-23.973772 43.747746 -2.3213964
-24.181242 43.471134 -1.6564007
-24.157135 43.574566 0.4322799
-24.307909 43.372387 1.3360958
-24.2872 43.312435 2.3713074
-23.96019 43.4407 3.1162972
-23.831913 44.29787 -2.076727
-23.956917 44.38145 -1.4962612
-24.001558 44.344048 -0.52395576
-24.149904 44.034912 0.04328032
-23.871782 44.170773 1.3787148
-23.858816 44.028214 2.1724055
-23.730742 44.76259 -1.4204549
-23.699465 44.87222 -0.60364705
-23.677668 44.73632 0.10738957
-22.992348 25.358418 -2.535704
-22.976217 25.370342 -2.0797434
-23.474186 26.213436 -3.662779
-23.343521 25.840725 -3.3153217
-23.606905 25.660864 -2.6458945
-23.265953 25.71032 -1.7452104
-23.063684 26.00873 -1.2134423
-23.48782 26.545698 -3.845811
-23.406813 26.594078 -0.98528355
-23.520716 27.208387 -4.01071
-23.556034 27.631073 -0.52960503
-23.217703 27.593737 -0.31124967
-23.368261 28.392143 -3.7841527
-23.457033 28.645552 -3.5198622
-23.60095 28.65647 -0.39156038
-23.22812 28.221136 -0.08489385
-23.026312 28.969088 -3.548375
-23.492308 29.158289 -0.56640285
-22.77898 30.087889 1.7035077
-22.797443 30.062986 2.5559492
-22.742746 30.177813 3.2396345
-23.021286 30.823023 -1.4810095
-23.094982 30.940607 -0.7378242
-22.696388 30.359983 0.49210897
-23.135323 30.848463 2.588605
-22.879974 30.782228 3.334751
-22.76338 30.85882 3.7579556
-23.080343 31.419226 -1.8115319
-23.337181 31.788336 -0.77917206
-23.502327 32.23987 0.054599203
-23.41424 31.671598 2.7732255
-23.319063 31.497644 3.1622462
-22.95889 31.718319 3.9618545
-23.485407 32.676373 -2.7056582
-23.342358 32.327045 3.6864889
-22.760664 32.664875 4.094821
-22.908636 33.954063 -3.6962812
-23.359734 33.670437 -2.9905138
-23.519018 34.536003 -3.0603619
-23.011679 35.97665 -3.6041365
-22.817965 37.015762 -4.3604193
-23.393835 36.52045 -3.0579882
-22.611479 38.297485 -7.205264
-23.008968 37.991787 -4.2087965
-22.783173 37.7922 2.3512564
-23.171602 37.740986 5.8166924
-23.23379 38.044785 7.116629
-22.634306 38.943077 -8.963514
-22.804804 38.878605 -8.374081
-22.935282 38.99136 -7.3383317
-22.616985 38.51928 -6.6711755
-22.675985 38.729225 -5.0370917
-23.527313 38.257385 -4.1041956
-23.401817 38.80641 -0.65226316
-23.603294 38.781174 7.449058
-22.677246 39.49969 -8.956903
-22.86864 39.489998 -8.3747635
-22.972288 39.52523 -7.6916614
-22.816208 39.53683 -6.520827
-23.289135 39.0769 -0.235065
-23.352894 39.119003 0.5922489
-23.610748 39.509514 7.470033
-23.275658 39.231457 7.5981026
-22.749115 40.0091 -8.204945
-22.761831 40.187977 -7.538131
-22.710516 40.229492 -6.87546
-23.488182 40.682312 -4.976404
-23.367779 40.377552 7.4182477
-23.210903 41.45237 -4.5482554
-23.343985 41.29188 7.142648
-23.183187 42.354324 -4.3685317
-23.283623 42.163536 6.4596567
-23.177988 41.91241 6.8398795
-23.222473 43.006763 -3.942676
-23.429857 43.40347 -3.4083881
-23.70941 43.225708 3.8394058
-23.435356 42.66196 5.417057
-23.37807 43.922104 -2.9900823
-23.442106 44.36659 -2.5008483
-23.04917 44.2682 2.607113
-23.118238 44.84878 -2.2271137
-23.379871 44.998203 -1.3949326
-23.399124 45.00645 -0.54298776
-23.374996 44.976955 0.6555181
-23.351099 45.013412 1.3125609
-23.024519 45.070007 2.1867762
-22.447483 25.334631 -2.8972762
-22.478504 25.239681 -2.3679667
-22.422071 25.313484 -1.9139712
-22.505106 26.098429 -3.7249336
-22.405008 25.573027 -3.22421
-22.482964 25.61262 -1.4555748
-22.515743 25.803753 -1.2384708
-22.527971 26.338434 -3.744779
-22.502296 26.726484 -0.5906682
-22.051008 27.863092 -3.9253843
-22.45946 27.78539 0.030665934
-21.882017 29.295198 2.450903
-22.113646 29.613365 1.5410672
-22.106407 29.447174 2.7759995
-22.19717 29.771923 3.1839504
-21.98946 30.030977 3.747488
-21.718212 31.028976 -5.0741673
-21.773361 30.858671 -4.27302
-22.612339 30.307076 3.4334674
-22.550898 30.535128 3.726716
-21.681759 31.575596 -6.146778
-21.84766 31.693874 -5.3936534
-22.376265 31.613928 4.4401164
-21.677263 32.126217 -6.123843
-22.132793 32.21701 -4.1070657
-22.4866 32.801857 -3.608807
-21.528784 32.28669 6.7036023
-21.957748 33.069454 7.6157165
-21.779945 33.110184 8.677399
-21.780842 33.180367 8.885395
-21.751768 33.593834 -5.1826982
-22.156082 33.74972 -4.291744
-22.081478 33.808983 7.8600574
-22.042871 33.51304 8.410257
-21.86146 33.646103 8.962202
-23.071613 34.50442 2.6629071
-22.054476 34.35838 7.813887
-22.063318 34.276455 8.483452
-21.823423 34.373795 9.036072
-22.28655 35.31702 -4.5191402
-22.735035 35.630585 2.1654935
-21.740519 35.100693 7.219564
-21.643711 35.427998 8.699234
-21.658422 34.953247 8.930125
-21.66243 36.85332 -6.1508684
-23.14108 35.83085 2.016974
-22.152708 38.33594 -9.023891
-22.12383 38.031887 -8.230273
-22.310223 38.17949 -7.3505244
-21.646755 37.44045 -6.8981137
-22.589516 37.26461 1.941308
-22.935328 37.81514 5.4961424
-22.627884 37.668762 6.3459086
-22.298878 38.104237 7.282624
-22.314608 38.919537 -9.26602
-22.46309 38.524883 -8.731289
-22.888597 38.827065 7.6357183
-21.943464 39.256474 -9.582551
-22.295834 39.398354 -9.323349
-22.218483 39.99339 -9.093452
-22.3389 40.265373 -8.5547085
-22.53845 40.41722 -7.6207213
-22.770937 40.576572 7.401655
-22.016685 40.64609 -8.249367
-22.008543 40.762756 -7.11315
-22.311739 41.578617 -5.1371317
-22.339664 41.53924 7.0974054
-22.217857 42.724483 -4.9233494
-22.493103 42.372288 6.3063164
-22.604536 41.982082 6.847495
-22.028505 43.39534 -4.8210936
-21.88345 44.190254 -4.829043
-22.029015 44.38817 -4.4590387
-22.452438 44.487095 -3.2834663
[...]
POINT_DATA 10162
SCALARS features_00 float 1
LOOKUP_TABLE default
0.6872065 0.65983295 0.6974312 0.77492696 0.7442723 0.7275969 0.68100584 0.7629249 0.84543484 0.7869617 0.74563646 0.6668612 0.7560885 0.8374021 0.8242333 0.81242883 0.43128994 0.40587223 0.5236344 0.6006313 0.6489022 0.52468264 0.590744 0.712811 0.6943207 0.58785975 0.6879134 0.583127 0.63716143 0.72390276 0.64688414 0.62496245 0.6291322 0.6246972 0.9497251 0.9061433 0.8002726 0.92447436 0.85693765 0.7595709 0.75299484 0.34130576 0.35329998 0.31561962 0.2109109 0.37751758 0.40269876 0.5369359 0.3508829 0.6568934 0.38295165 0.4894286 0.51173246 0.50930685 0.64938366 0.59238935 0.655615 0.67907846 0.6823034 0.44099736 0.53999114 0.6257217 0.6595849 0.67586964 0.32882783 0.47702017 0.57878757 0.61657166 0.26053908 0.32778573 0.4190191 0.49271017 0.5629518 0.25724703 0.2886276 0.29764527 0.3325235 0.26950923 0.2765757 0.9704375 0.9309869 0.81606704 0.9548368 0.97404754 0.88740134 0.7704602 0.6455114 0.9349661 0.6759642 0.5838489 0.90852714 0.8447847 0.6044537 0.5037056 0.11990182 0.13083005 0.11114543 0.12295445 0.17495741 0.18985556 0.07747781 0.11294979 0.63507193 0.2127053 0.12918694 0.32233125 0.55736744 0.64710927 0.70180535 0.25952503 0.23941495 0.17993118 0.6980767 0.67745507 0.25417292 0.2759837 0.23289493 -0.02326775 0.23850405 0.658463 0.20004378 0.25022388 0.26601684 0.218769 0.066819355 0.12320553 0.21609229 0.6376279 0.27548575 0.28469038 0.29316524 0.23546988 0.2245898 0.17412981 0.49414438 0.571519 0.611225 0.27633506 0.32224056 0.3443491 0.3278095 0.24989268 0.2466956 0.32632744 0.4784354 0.55784 0.3494994 0.40545076 0.4075169 0.3209772 0.274769 0.27273282 0.2671877 0.41871616 0.43071058 0.40066347 0.3583793 0.28278357 0.27276725 0.42862174 0.41139394 0.36045313 0.8481549 0.81545746 0.91127515 0.9076606 0.91533554 0.80317926 0.73148286 0.89658237 0.64653075 0.86097825 0.5190167 0.49376333 0.7918279 0.7929896 0.4145426 0.42643 0.6690119 0.31938973 0.28640586 0.32272717 0.3284524 -0.06989664 -0.12333061 -0.03786862 0.27437255 0.30667937 0.3003217 -0.008218389 -0.038278785 0.013291091 0.25898775 0.28705433 0.2861556 0.11513562 0.28524598 0.27095917 0.012375206 0.09631842 0.03309001 0.027640272 0.04673793 0.12834038 0.49221516 0.15899655 -0.25847504 0.7884606 0.7387279 0.7376584 0.7468584 0.67494065 0.39586732 0.083406195 0.22047079 0.041311502 0.662745 0.7759412 0.7878188 0.74504614 0.51461107 -0.027063292 -0.1379061 0.6388235 0.63711023 0.7800191 0.724926 0.6030668 0.19788672 0.617798 0.25770965 0.6013752 0.26742366 0.56921786 0.57856077 0.2883132 0.32062286 0.2779119 0.50344604 0.35175008 0.3846632 0.28806132 0.37343544 0.4107601 0.4005794 0.32176638 0.29652917 0.32756642 0.82182205 0.80136263 0.7763089 0.80459356 0.8199614 0.7479929 0.72642255 0.7940758 0.58226705 0.7153911 0.45512962 0.3559166 0.33095112 0.35882884 0.34673256 0.32141683 0.18883306 0.067271024 0.32503277 0.3116237 0.30756623 0.18562567 0.2513705 0.26126957 0.044875614 0.051281206 0.5221055 0.6316586 0.6887752 0.6954951 0.021752752 -0.029600957 0.6676344 0.69425786 0.703525 0.05272919 0.68455195 0.70456356 0.6828374 -0.08300917 -0.012163876 0.5975727 0.61379045 0.64573604 0.00089785643 0.033836104 0.63882613 0.5568358 0.46939448 0.2250041 -0.38473794 0.7347355 0.79296607 0.7393725 0.6972626 0.6886427 0.65236545 0.67684466 0.7304186 0.7665385 0.7804877 0.7248774 0.5750885 0.75500375 0.60592663 0.22527531 0.52421254 0.3211879 0.50381964 0.53956735 0.39674526 0.515493 0.48489076 0.35473728 0.37979975 0.542698 0.43836778 0.34592354 0.31027642 0.30771378 0.4271763 0.3057074 0.44976512 0.47149414 0.45685893 0.780177 0.7560524 0.7450689 0.7549809 0.7177831 0.7041488 0.65736973 0.70810306 0.66781294 0.40253258 0.34922028 0.53740984 0.49904394 0.31318766 0.53373384 0.5198881 0.44033587 0.11117912 0.43459865 0.5179902 0.48930982 0.4764985 0.40392038 0.15349565 0.35825124 0.56263334 0.57565904 0.40647143 0.3809724 0.29507548 0.4377531 0.6623906 0.66088796 0.14864282 0.3005392 0.6840663 -0.75468946 0.33904156 0.4392792 0.6584208 0.61098707 -0.1676992 0.39792815 0.5449434 0.14864679 0.08818638 0.48859215 0.5066021 0.5150454 0.49136746 0.60171527 0.5976795 0.71750265 0.6566138 0.7013352 0.4353016 0.659657 0.7241397 0.42747396 0.72100145 0.48039007 0.30446386 0.26708326 0.4301393 0.510153 0.5282487 0.651732 0.35949862 0.7049898 0.6667431 0.53005904 0.31042182 0.262398 0.41763353 0.22997908 0.33478606 0.4672536 0.5002214 0.48148856 0.5125736 0.56277883 0.5449617 0.51981133 0.67121243 0.61312366 0.43294948 0.3972767 0.3172232 0.20714116 0.10594888 0.10370819 0.5085063 0.49655047 0.41412073 0.13648012 0.48597834 0.5207177 0.1160713 0.43622863 0.49213892 0.5124036 0.46450788 0.46228492 0.5358461 0.5516632 0.3898521 0.60325646 0.3064663 0.1892271 0.6270478 0.62042016 0.35713172 0.26875478 0.05427353 0.5693889 0.5853185 0.26640788 0.11601469 0.029253624 -0.5233969 -0.7274014 0.48315418 0.16028628 -0.75867987 -0.33109403 0.316564 0.27161282 0.3582794 -0.54723036 0.40246612 0.19905472 0.5445643 -0.020403564 0.6214979 0.521936 0.28281614 0.08590851 0.038084935 0.028976217 0.734417 0.7419003 0.7150004 0.57739836 0.23928666 0.4396525 0.21370837 0.43852967 0.5159 0.47191635 0.5839404 0.6360488 0.62400043 0.5821437 0.67723703 0.6694045 0.16047306 0.31689405 -0.0043676216 -0.046289593 0.37986588 0.17770451 0.08390673 0.063154705 0.41588348 0.09393302 0.058471054 0.44562286 0.35634264 0.4243183 0.4665661 0.45334744 0.21336627 0.44885898 0.36242503 0.39127132 0.3817683 0.431344 0.40810406 0.39309904 0.3305441 0.3547355 0.40077996 0.38355094 -0.6978893 0.28388315 0.40313265 0.34696627 0.3129179 0.32682294 0.3459335 0.39957628 0.4240129 0.31654245 0.36721227 0.24818113 0.071123995 0.08401146 0.006489262 -0.29978472 -0.27628726 0.5928079 0.69284666 0.6184505 0.7003611 0.6399791 0.47673783 0.40279025 0.28002325 0.5323585 0.5498903 0.50570095 0.5943779 0.6630742 0.682564 0.6117425 0.6895204 0.70716923 0.710217 0.14458956 0.17540458 0.21507788 0.059978902 0.014792778 0.08409779 0.030471928 0.14375415 0.19305965 0.14514992 0.073553436 0.09726416 0.1630026 0.21261786 0.3462882 0.29713953 0.25074792 0.23370388 0.34388322 0.25241622 0.37915367 0.363798 0.2514913 0.4130761 0.2757795 0.4294977 0.2906898 0.42266732 0.3703505 0.3803642 0.39388987 0.20493035 0.37720218 0.3328726 0.4001379 0.18893217 0.10161038 0.107458875 0.33445278 0.020771923 -0.15134878 0.36083496 0.19171405 0.25747445 0.53841114 0.4100414 0.23472112 -0.06864312 0.5541754 0.4816953 0.3875079 0.30446923 0.18658677 0.65113866 0.4810193 0.4445051 0.695215 0.73030365 0.71090823 0.5655062 0.7296164 0.3394388 0.32277563 0.34044415 0.25162888 0.011326655 0.007077802 0.1720556 0.28675777 0.2004216 0.21581958 0.19269904 0.14199804 0.091889456 0.13658328 0.0413168 -0.017168654 0.040290713 0.18048792 0.059265867 0.24691485 0.25351605 0.13304803 0.16088626 0.30275053 0.42141968 0.22637907 0.43471166 0.274359 0.43576872 0.32777172 0.38988853 0.41179553 0.2770881 -0.09973023 -0.042417724 0.18117476 0.29826182 0.38760364 0.41903338 -0.08111424 -0.04043039 0.24136591 0.4282688 -0.1939104 -0.20784259 -0.09191183 0.5228448 0.37723154 0.22483669 0.23734877 0.36913803 0.5447497 0.49193293 0.6304215 0.46477616 0.3167414 0.70243514 0.69901705 0.54726535 0.40816724 0.41612947 0.38933533 0.2911051 0.48556298 0.5139152 0.44429106 0.3759187 0.3331004 0.37799287 0.39416802 0.18061775 -0.012010809 -0.03211154 0.095332675 0.33809817 0.2794232 0.28646424 0.18947227 0.09482292 0.28145075 0.21520859 0.16259135 0.015390078 -0.0124929845 0.022921689 -0.023203008 0.013969682 0.05012486 0.18193962 0.17757732 0.2576393 0.14706782 0.4152006 0.28354096 0.24781644 0.34213156 0.37093678 -0.0058052987 0.35094625 0.36069632 0.4970715 0.040184516 0.07260871 0.4327133 0.48670557 0.3722762 0.4787589 0.015303444 0.55593336 0.15138851 0.27818525 0.40043288 0.50223386 0.41078174 0.38710988 0.39549094 0.40728086 0.3936854 0.34024543 0.29421717 0.45799717 0.5209943 0.57046455 0.5303886 0.48238114 0.3387321 0.38405514 0.3305295 0.26662737 0.35978 0.336272 0.04057086 0.33606583 0.01095988 0.2597347 -0.031236384 0.05938778 0.26389146 -0.07956693 0.26934767 0.23090403 0.14494851 0.21818653 -0.03940633 0.31550276 0.3266069 -0.02946306 0.36328977 0.3793619 0.31553894 0.29484832 0.15134451 -0.026790582 0.48946935 0.4388183 -0.20809081 0.6385979 0.61259806 0.4447857 0.44075745 0.4131443 0.04815917 0.08317762 0.07441848 0.7110592 0.680083 0.55803347 0.52952003 0.48607144 0.45612055 0.4381528 0.23151428 0.27348155 0.28087193 0.7417824 0.70738196 0.65354574 0.48154312 0.4844175 0.49161553 0.24481203 0.17981236 0.43926948 0.07177999 -0.086331725 -0.066829085 0.55842197 0.09077167 0.31739855 0.4592974 0.522496 0.57969046 0.45373407 0.50181544 0.53421235 0.5770408 0.5530616 0.5052229 0.25464407 0.3097902 0.36414772 0.39418203 0.40905297 0.326126 0.24912101 0.46605688 0.3852324 0.37635455 0.23712975 0.119464464 0.028507054 0.0021232367 0.27684087 0.34854534 0.35984328 0.056464873 0.25452942 0.08074256 0.2114783 0.090102986 0.2815079 0.2957031 -0.07817208 0.31161314 -0.049140017 0.23976763 -0.058191143 0.05117159 0.23973034 0.23838948 0.22605121 0.27470103 0.34357318 0.53426534 0.43755305 0.067941435 0.21822152 0.6495468 0.68232834 0.11329129 0.11524142 0.2407017 0.7240156 0.7349531 0.37227488 0.3055717 0.76547897 0.7295997 0.6247595 0.5245495 0.45696926 0.44809523 0.43942928 0.43659562 0.29324615 0.21387175 0.03221811 0.66102946 -0.0321872 -0.041077126 0.4575274 0.55878854 0.54605776 0.50079286 0.42655814 0.2866166 0.2468738 0.15343346 0.33127177 0.3375957 0.3409804 0.2878372 0.092897356 0.31973106 0.14519554 0.30175823 -0.2867319 -0.111505635 -0.05302047 -0.03127396 0.10435099 0.12124209 0.118362434 -0.16641891 -0.20706473 -0.103262655 0.16080725 0.20635797 -0.023799187 -0.19445989 -0.12327573 -0.1735008 -0.2941615 0.31152207 -0.08156187 -0.111424565 0.10361454 0.20512477 0.15213153 0.14345917 0.13291451 0.16647875 0.17037697 0.18254018 0.20122238 -0.1646901 -0.21794255 0.22500402 0.2637221 -0.24755245 0.315593 0.2874303 0.32346642 0.45947412 0.064866014 -0.00058734044 0.32810307 0.61711967 0.14477743 0.2752818 0.2547743 0.40940398 0.47784513 0.7586789 0.30154437 0.31082994 0.31349623 0.19626842 0.25655025 0.36256477 0.44630873 0.5670018 0.7804731 0.7609588 0.6939542 0.5525961 0.44767562 0.4245995 0.41602084 0.4103161 0.3816678 0.31197715 0.29506025 0.21131037 0.03709796 -0.13476759 0.50696796 0.52149534 0.6534525 -0.1774686 0.4619959 0.44731325 0.40507242 0.21028632 0.21951261 0.18738683 0.4248054 0.33848947 0.25508085 0.27940705 0.13299935 0.2151405 -0.22635545 -0.0031914935 -0.26756936 -0.16425909 0.1826215 -0.18300706 -0.29162878 0.3046668 -0.10146527 -0.14358503 -0.21176746 -0.53545934 -0.28002074 0.41847095 0.052968223 -0.4286105 -0.13952036 0.4390921 0.14132306 0.10123726 0.4042096 0.14097205 0.14390972 0.22813898 0.16962409 0.18470596 -0.38405135 0.27964032 0.0009891987 -0.09164531 -0.21303928 0.31870735 0.3900493 0.50499606 -0.0007729903 0.11725521 0.46509302 0.5367936 0.5903262 0.16759121 0.19423918 0.5518807 0.6029786 0.7105502 0.26118368 0.30019465 0.28543296 0.25636154 0.3093219 0.2812148 0.6396053 0.7296533 0.638509 0.5416909 0.42579758 0.34831542 0.34997836 -0.065093726 0.33096674 0.64239246 0.7745027 0.63735276 0.35216996 0.5297524 0.6166298 0.48651063 0.39937237 0.40068305 0.19067182 0.1942324 0.19096616 0.10875148 0.23519947 0.3044214 0.5159879 0.50589645 0.33412355 0.36337173 0.3297427 0.2191858 0.14479336 0.16142538 0.14111423 0.15612489 0.04127197 0.06826537 0.04931502 0.2840515 0.20628193 0.08604235 0.27597332 0.31524646 0.022850167 -0.07075806 -0.04694508 0.44960603 -0.050687224 0.55119836 -0.5834551 0.5344261 0.031192672 -0.25303236 -0.24430999 -0.17541708 0.15722854 -0.15309416 0.4480011 0.03177481 0.3581012 0.0019504018 0.08474866 0.3010945 0.3178863 0.018260293 -0.30351502 0.1516642 0.072623596 -0.120299295 0.103034765 -0.20519853 0.19801971 -0.10980517 0.52322716 0.59754735 0.17508656 0.19302742 0.13929416 0.123756066 0.608955 0.678138 0.6721831 0.5906888 0.17465012 0.19095 0.24207118 0.20073178 0.21738815 0.07105839 0.8519479 0.5911728 0.41759172 0.064970545 0.3148066 0.8727272 0.3488683 0.46397442 0.5745672 0.66569984 0.7018998 0.7830801 0.8792369 0.50972384 0.5265266 0.5176809 0.7516971 0.7700657 0.7227088 0.76958513 0.8045208 0.6889601 0.6688944 0.7168051 0.5674679 0.6624186 0.52277946 0.39054653 0.47958267 0.1822409 0.17563258 0.4164919 0.13891876 0.38817328 0.54041123 0.551436 0.18271957 0.09535396 0.5527146 0.26236323 0.24733885 0.12249441 0.47691298 0.2873585 0.31072772 0.2051026 0.14162287 0.1257711 0.19847666 0.37688917 0.4572516 0.52215034 0.11573197 0.18957733 0.012780547 0.5521673 0.5762659 0.60105824 0.5389298 0.08817884 -0.11414835 0.5944896 0.6062 0.63016236 0.6226985 0.55621344 0.4317781 0.27911913 -0.5194838 -0.35363603 -0.25221124 -0.36259547 0.6150571 0.5705596 0.5967443 0.39707446 0.16527878 -0.21106629 0.55337834 0.44217697 0.33410838 0.35511065 0.45617315 0.5011885 -0.031311907 0.0032239407 0.37686592 -0.09737949 -0.0526345 0.25807425 0.60080326 -0.046360243 -0.09930696 -0.13636535 0.024493158 -0.08287121 -0.070507385 0.18046474 0.71477836 0.23996672 0.20307988 0.049745664 0.71995986 0.71125126 0.6567743 0.4437681 0.16669026 0.20564619 0.10288608 0.033643916 0.79183877 0.56359905 0.2135192 0.12849058 0.8784094 0.6263654 0.5900924 0.49515548 0.49532044 0.9456259 0.5821137 0.60139066 0.62856495 0.58361524 0.4814839 0.406381 0.5079358 0.54060906 0.6935659 0.8571117 0.9200303 0.5699437 0.5872656 0.6188377 0.5857283 0.48991376 0.5278997 0.60280085 0.6004914 0.57663965 0.7355476 0.7720121 0.8231677 0.52885985 0.5216987 0.5555484 0.54512286 0.4243616 0.64682055 0.45318615 0.40050495 0.4168759 0.40873063 0.85101354 0.8373696 0.7645962 0.6974268 0.71574885 0.78513193 0.78074294 0.716962 0.61611474 0.67199534 0.6190388 0.43944734 0.6048894 0.34294382 0.39256757 0.14911927 0.48476493 0.5050098 0.11924514 0.15050331 0.5417323 0.23481572 0.25271672 0.30105788 0.52026284 0.12699006 0.14617482 0.3170906 0.30742782 0.10262126 0.13602711 0.15286128 0.18860914 0.39396656 0.5159749 0.5442972 0.1323455 0.1141385 0.5756053 0.6032877 0.6221265 0.6088897 0.51275855 0.47475752 -0.2188291 0.6235508 0.6287889 0.55903155 0.6157915 0.63895524 0.3546064 0.14488177 -0.5259307 -0.515627 0.6388481 0.5078286 0.53446275 0.603484 0.61863947 0.46090305 0.38348192 0.4864001 0.54101384 0.5314331 0.51432234 0.47277582 0.22910143 0.055619065 0.39941671 0.5537519 0.5841033 0.5875038 0.5498204 0.48306185 -0.10972367 0.5772887 0.60815287 0.61283034 0.56738365 0.47620422 -0.059292704 0.063016266 0.56150347 0.5557349 0.498531 0.33868223 -0.077397645 0.0007528141 0.16440429 -0.05244471 -0.0015520602 0.5105436 0.39820445 0.3889858 0.26200885 0.23816693 0.09920043 0.06864537 0.52718407 0.64280236 0.31352487 0.25928915 0.40545776 0.4951837 -0.124271736 -0.29039752 0.24245228 -0.103435054 0.0055853873 0.110798396 0.16437283 0.7498466 0.5650518 0.5423467 0.4668948 0.35265294 0.47827515 0.5951266 0.6333748 0.06286853 0.111062 0.17373069 0.18065858 -0.12843308 0.14610972 0.77518624 0.8389272 0.5859511 0.5987694 0.565097 0.41472718 0.30832297 0.5950202 0.66313845 0.67778486 0.6209266 0.28615284 0.25894916 0.20659348 0.18576062 0.060586262 0.11100874 0.45290554 0.90600437 0.9140358 0.5916186 0.61806786 0.45063466 0.31107143 0.64580524 0.6394254 0.29716867 0.27863607 0.22212374 0.5016787 0.61989117 0.96574867 0.9430095 0.5449888 0.16078383 0.43117732 0.5915669 0.66505575 0.769819 0.85464334 0.94486344 0.9770572 0.54884034 0.2766214 0.18082356 0.6463255 0.6901511 0.68147063 0.6672146 0.7645842 0.81366307 0.85484785 0.5265949 0.45099977 0.26888588 0.18822233 0.7115265 0.72366554 0.3440981 0.36980703 0.27016985 0.2656605 0.31635615 0.30051175 0.28968877 0.2760077 0.26527536 0.34905368 0.32288855 0.269399 0.3887971 0.35988933 0.30950335 0.47671074 0.5282414 0.52280307 0.52573884 0.58049524 0.570384 0.45186776 0.5373245 0.6071588 0.57647014 0.5060852 0.5846703 0.6396333 0.6041678 0.8531318 0.8299938 0.8211634 0.86492825 0.8622716 0.78657806 0.7150537 0.75299454 0.62711453 0.55684376 0.64716107 0.41019621 0.27742943 0.49423233 0.28207764 0.34403154 -0.057914495 0.38886195 0.40369228 0.4898687 0.23519796 0.3011021 0.32653236 0.058709297 0.34023458 0.29584935 0.23740137 0.25659227 0.30592766 0.32433635 0.30312434 0.090291575 0.08098006 0.2854855 0.5043845 0.53470856 0.5501738 -0.026243344 -0.0010969751 0.42678234 0.5703976 0.60022306 0.6132635 0.5350821 0.59851885 0.57297564 0.50996053 0.38554633 0.07527924 0.62896395 0.63492566 0.45652056 0.5119157 0.6523955 0.6437557 0.40619302 0.4873913 0.6581242 0.45957595 0.46825653 0.46561182 0.44317013 0.38430938 0.106981196 0.4632478 0.60171443 0.63475883 0.48160908 0.47818154 0.49591368 0.47652176 0.43230638 0.27719617 0.33054954 0.008057204 0.51730126 0.53695047 0.42326367 0.35664344 0.055112064 0.12208296 0.553695 0.3311172 0.10911693 -0.07977089 0.114932895 0.090612054 0.5627986 0.53301424 0.16223633 0.10412948 0.11971326 0.06370018 -0.030535832 -0.07283023 0.15133585 -0.16952823 -0.17807403 0.08544019 0.51584053 0.42411116 0.24794647 0.23340794 0.21092594 0.21229923 0.16053373 0.06613998 -0.004280597 0.056448378 0.14628753 0.21883544 0.07219878 0.45302182 0.5110025 0.5831789 0.2799143 0.25717306 0.25634316 0.23792309 0.19622079 0.11139993 0.21456839 0.19108362 0.29554924 -0.036385886 0.30381483 0.51393455 0.6050315 0.53519034 0.5158075 0.3932811 0.44002712 0.45456225 0.48517683 0.34127432 0.068508 0.07266125 0.17034744 0.23044123 0.23530312 0.09380987 -0.024736702 0.30729327 0.1776039 0.16853009 0.11714275 0.28266233 0.3506683 0.45680118 0.47082037 0.6671476 0.7880448 0.86354434 0.5503303 0.5510326 0.3728811 0.2615966 0.26724297 0.035024688 0.15970857 0.124697775 -0.10123506 -0.01116617 0.2636682 0.49747816 0.22219543 0.20842008 0.24490595 0.29434514 0.24760266 0.30601826 0.35112828 0.40773806 0.24441442 0.27951038 0.49105442 0.637274 0.70612425 0.8652805 0.905324 0.5281272 0.18697417 0.17756547 0.21114558 0.26772663 0.19681723 0.6309055 0.58164513 0.45317367 0.29220665 0.315252 0.3017679 0.34450245 0.7151783 0.82345986 0.91563255 0.95838296 0.101078734 0.21998502 0.33025998 0.35036635 0.30236766 0.57411516 0.7528142 0.6990916 0.78929234 0.9016566 0.95945257 0.98831254 0.4776072 0.15553269 0.14128251 0.2982588 0.3983195 0.39314678 0.31913534 0.71357524 0.7490921 0.79405123 0.7639246 0.17631301 0.1637645 0.39369 0.3919657 0.34832412 0.76753414 0.7770678 0.2642766 0.25044698 0.33109203 0.452522 0.29633692 0.20509984 0.14952506 0.31933683 0.36481687 0.42104942 0.43709353 0.3500838 0.48999143 0.56222355 0.5663964 0.54390097 0.42405525 0.33234698 0.28095853 0.24139449 0.16115 0.23717481 0.34614807 0.44720584 0.48062298 0.47479063 0.27403197 0.26516137 0.19209856 0.14262521 0.4097237 0.52303517 0.56212807 0.46783888 0.28466135 0.26520404 0.38382334 0.4521348 0.48263142 0.28785548 0.3354984 0.27041095 0.25314403 0.2110734 0.3918839 0.48110777 0.48033893 0.3704434 0.3438763 0.37264156 0.4130792 0.38425946 0.304577 0.3427443 0.3937139 0.45816576 0.3648998 0.23128405 0.25252712 0.42508116 0.5184553 0.43665248 0.2657766 0.4210974 0.55893224 0.6472893 0.64312214 0.5478486 0.5921772 0.65227795 0.637572 0.5850143 0.84671557 0.8280386 0.83646876 0.83743715 0.80344725 0.7337904 0.75411206 0.7209094 0.61411667 0.4868573 0.3315289 0.25205487 0.20268852 0.27773663 0.3775568 0.2738496 0.36533576 0.32427675 0.35831392 0.18160334 0.2190703 0.4152008 0.058941126 0.4047423 0.33640683 0.35494286 0.3522632 0.3236039 0.3104266 0.021557081 0.30570722 0.27261445 0.5400645 0.47187823 0.45067412 0.3324063 0.08875924 -0.00066410005 0.18321921 0.49593928 0.6440487 0.649176 0.48529962 0.30871207 -0.06095977 0.1538163 0.3441163 0.60007316 0.655129 0.660656 0.45876402 0.4529366 0.4492606 0.21479008 0.31857663 -0.07963157 0.24358967 0.50119895 0.6077462 0.4481239 0.44591624 0.4496694 0.4566967 0.4219496 -0.036211304 0.2470515 0.41691917 0.4618563 0.34806955 -0.01141794 -0.021791717 -0.077158496 0.17998905 0.5087