# vtk DataFile Version 2.0
Really cool data
ASCII
DATASET POLYDATA
POINTS 10921 float
-49.575138 38.70629 77.68317
-49.54202 38.75392 78.60655
-49.579258 38.58608 79.03686
-49.75468 38.917423 84.062416
-49.86031 38.886356 84.57058
-49.74982 38.819054 85.21505
-49.547085 39.428593 76.79026
-49.594475 39.39416 77.62302
-49.560226 39.247894 78.49796
-49.792816 39.406105 83.973076
-49.962254 39.46434 84.458305
-49.89094 39.421932 85.23791
-49.621628 39.463894 85.95251
-49.533054 40.100563 76.967545
-49.698036 39.955925 83.923134
-49.816597 40.069866 84.52286
-49.73324 40.114204 85.312454
-48.54251 34.112465 77.16847
-48.56925 34.471775 76.78807
-48.59443 34.40768 77.39001
-48.626907 35.569973 77.5066
-48.66111 36.756725 76.54716
-49.038376 36.904873 77.40063
-48.9085 36.888645 78.35241
-48.857773 37.114468 79.0042
-49.037224 37.594982 76.646614
-49.385994 37.954334 77.6144
-49.298737 37.611916 78.35215
-49.24748 37.682766 79.31195
-49.25503 38.344723 84.01453
-49.28399 38.21577 84.84439
-49.176666 38.13609 85.13212
-48.8235 38.225742 86.09807
-48.878468 38.48222 75.77351
-49.324474 38.577694 76.58695
-49.488934 38.768864 77.33415
-49.41892 38.4377 79.45454
-49.105633 38.35586 80.13472
-49.497826 38.803867 83.85683
-49.48871 38.611683 85.44751
-49.103573 38.735744 86.47605
-48.88005 38.758163 86.95988
-49.178753 39.432446 75.75626
-49.427692 39.50926 76.521614
-49.46868 39.76512 77.53341
-49.48693 39.568375 78.26053
-49.17196 39.604294 79.56881
-48.91221 39.294304 80.198715
-49.02809 39.360153 83.30124
-49.504074 39.350937 83.67735
-49.314613 39.49193 86.49558
-48.921364 39.41031 87.21174
-48.639812 39.68266 87.68233
-48.570724 40.74583 73.92246
-48.724403 40.480537 74.715485
-49.08829 40.62742 75.66526
-49.38646 40.341827 76.64714
-49.348385 40.172733 77.596466
-49.021835 40.292755 78.6217
-49.000084 40.0513 79.4
-49.2436 40.44868 83.79003
-49.54534 40.524258 84.53661
-49.383785 40.61853 85.57902
-49.29961 40.15266 86.236374
-48.719414 40.359016 87.202545
-48.70989 41.08803 75.685974
-49.016254 41.00119 76.406265
-48.748966 40.93982 77.77323
-48.719513 40.877747 78.44342
-48.811867 40.98455 83.77547
-49.049633 41.09396 84.67806
-48.92091 41.113342 85.447266
-48.76087 40.991947 86.27196
-48.537647 47.659927 81.4032
-48.566944 48.14383 81.48722
-47.624767 27.207434 75.32273
-47.654408 27.715445 74.79398
-47.73129 27.63386 75.484695
-47.65771 27.662022 76.07321
-47.69683 28.31845 74.88072
-47.735744 28.347082 75.49185
-47.64348 28.426798 76.04116
-47.599506 29.703005 81.01624
-47.612392 29.626862 81.5162
-47.55962 29.862059 82.053986
-47.53697 30.28239 81.06492
-47.602776 30.059092 81.682175
-48.11292 33.276558 77.00495
-48.06294 33.282738 77.596214
-47.857525 33.27669 78.15142
-48.072193 33.84566 76.01462
-48.254517 33.716377 76.548294
-48.28172 33.579216 77.38737
-48.075714 33.950047 78.41305
-48.089878 34.51133 75.839836
-48.46602 34.486027 76.36039
-48.466953 34.124737 77.81024
-48.28827 34.478592 78.30562
-47.91767 34.182205 78.63806
-48.060825 35.297184 76.02792
-48.4381 34.99295 76.43921
-48.277126 35.029224 78.31704
-47.659904 35.53831 82.08479
-47.76601 35.779625 82.35538
-47.826492 35.83727 82.94246
-47.678925 37.191402 71.66991
-47.717045 37.183784 71.900894
-48.41889 36.628094 76.37819
-48.10061 36.833477 79.116646
-47.906654 36.968597 79.93452
-47.962437 36.862778 81.697426
-47.954105 36.359966 82.54764
-47.73938 36.473 83.14251
-47.94945 37.723938 70.7517
-48.06581 37.803852 71.45687
-47.887875 37.826916 72.07814
-48.068157 37.874218 75.21206
-48.555733 37.680164 75.893326
-48.223785 37.36607 80.380455
-48.03598 37.55622 81.59482
-48.12173 37.878254 82.765
-48.64296 38.016006 84.57359
-47.941 37.63872 85.525276
-48.39091 38.07636 86.5526
-48.213387 38.22558 87.125206
-47.840683 38.490177 70.20731
-48.086746 38.517014 70.67125
-48.242134 38.583984 71.40101
-48.06694 38.267372 72.04603
-47.872417 38.78761 73.60467
-48.2292 38.642643 74.65508
-48.346653 38.808174 81.35801
-48.17942 38.592693 82.40644
-48.6734 38.343636 86.79308
-48.39996 38.55407 87.29841
-48.22597 39.004402 87.811325
-47.710243 39.169323 70.06168
-48.02251 39.259354 70.71283
-48.15706 39.343857 71.4715
-47.998547 39.509365 72.4369
-48.284817 39.74368 73.69429
-48.455925 39.79342 74.31765
-47.965816 39.7438 80.665565
-48.631523 39.350666 87.58535
-48.486153 39.67765 87.7582
-47.616783 40.109684 92.15364
-47.60174 40.0891 70.14564
-47.77387 39.926807 70.65735
-47.757233 40.048603 71.22422
-48.34263 40.40099 73.090904
-48.49305 40.572258 73.574814
-48.341347 40.43478 79.94523
-47.84464 40.1146 82.207054
-48.52065 40.6454 83.14982
-48.515938 40.362705 87.473175
-47.8294 40.222782 88.407906
-47.608364 40.783066 91.99114
-47.716015 40.429256 92.704895
-47.63302 40.55129 93.4949
-47.558224 40.639027 93.99993
-48.131092 41.384644 73.13261
-48.304462 41.493824 73.598526
-48.47046 41.582 74.57866
-48.57835 41.255802 77.23528
-48.47411 41.079556 78.27726
-47.740265 41.15235 79.97318
-48.47017 41.200092 83.69345
-48.143925 41.512486 86.39659
-48.051723 41.057323 87.31789
-47.591984 41.003696 91.974785
-47.67038 41.1164 92.57479
-47.645973 41.147114 93.20858
-47.72826 41.973087 73.17153
-48.16428 41.958027 73.60459
-48.13963 42.128593 74.4881
-48.07219 42.60027 75.52565
-47.73297 42.353394 77.66764
-47.522003 42.594208 78.75037
-47.65563 42.88595 79.38291
-48.107365 41.72546 84.43453
-48.29688 41.62543 85.52045
-48.00519 41.71261 86.5333
-47.756767 43.020924 73.6516
-47.876865 43.40865 74.73168
-48.15478 43.657154 75.94464
-47.92056 43.61969 76.41058
-47.542583 43.828575 77.38743
-47.833336 43.77461 78.90224
-47.96035 43.727486 79.47964
-47.93905 43.680195 80.20607
-47.70286 43.548218 80.92691
-47.849094 44.10204 74.83219
-47.92232 44.3503 75.375824
-47.922226 44.56163 76.46857
-47.903942 44.33389 76.9767
-47.84644 44.302425 78.99736
-47.97606 44.453754 79.61298
-47.985485 44.556625 80.51894
-47.760147 45.188885 75.950516
-47.754375 45.592648 78.79804
-48.057316 45.44531 79.4706
-48.00069 45.58368 80.61833
-47.832733 45.833702 81.65907
-47.8275 45.838596 81.937294
-47.775826 46.22388 78.80265
-48.00535 46.77329 79.34141
-48.23485 46.53467 80.36908
-48.298046 46.615067 81.5603
-48.15775 46.776443 82.26003
-47.822643 46.84845 82.92998
-47.959045 47.3993 79.59528
-48.386158 47.63465 80.70426
-48.45193 47.386787 81.684
-48.345734 47.63704 82.30399
-47.968105 47.587093 82.95318
-47.942627 48.259674 80.13023
-48.33099 48.413563 80.79155
-48.384346 48.43508 81.426186
-48.22972 48.308327 82.26785
-47.8678 48.173004 82.932175
-48.034466 48.835335 80.82002
-48.05151 48.885735 81.45422
-47.97196 48.734993 82.327385
-47.96273 51.918674 77.87155
-48.11439 52.02532 78.41582
-47.968857 52.033722 78.92363
-47.778763 52.767414 76.95568
-48.216835 52.70829 77.783295
-48.324894 52.54203 78.41742
-48.012295 52.55943 79.30886
-47.824467 52.86195 80.229645
-47.793194 53.368988 77.18621
-48.149044 53.395782 77.82157
-48.331528 53.322083 78.47734
-48.170864 53.444057 79.57313
-47.965096 53.63599 80.36724
-47.731262 53.63427 80.82159
-47.80495 54.026436 77.62377
-47.860443 54.4478 78.357994
-47.94413 54.31248 79.68253
-47.841393 54.184338 80.37554
-47.67461 54.01221 80.83086
-47.702667 54.77205 79.78542
-46.879906 26.34127 75.90101
-46.759468 26.380781 76.28642
-46.530933 26.96044 70.983376
-46.55485 27.00579 71.72166
-47.20192 26.925762 74.89462
-47.262764 26.809372 75.63705
-47.060074 26.721777 76.43334
-46.78751 26.866758 76.95732
-46.65811 27.81741 70.67017
-46.683716 27.533384 71.229866
-46.548134 27.897446 72.723335
-47.457737 27.417368 74.667725
-47.425613 27.453821 76.405655
-47.00501 27.556679 77.07048
-46.80347 28.23417 81.52819
-46.73902 28.286839 82.31306
-46.65702 28.255354 70.67348
-46.655437 28.329058 71.10619
-46.601543 28.203623 72.52313
-47.406113 28.035194 74.25374
-47.452023 28.575645 74.51418
-47.481705 28.482346 76.38373
-46.68381 28.403053 77.54259
-46.64219 29.124563 78.54038
-46.962948 29.042149 79.82873
-47.27902 29.04849 80.73283
-47.307415 28.905277 81.598625
-47.08755 28.754723 82.216484
-46.733276 28.88011 83.01566
-46.931873 29.24247 74.11178
-47.262066 29.04394 74.738495
-47.32417 29.099133 75.84477
-47.170372 29.173725 76.46868
-46.717747 29.075586 77.19059
-46.84553 29.629986 78.73584
-46.944763 29.75117 79.26914
-47.37602 29.53784 80.664986
-47.510414 29.28142 81.48298
-47.354668 29.538244 82.372505
-47.066986 29.68446 83.0486
-46.696434 29.717417 75.232994
-46.89683 30.606749 79.1008
-47.163982 30.474302 79.75025
-47.43075 30.30397 80.80137
-47.431614 30.181229 82.17879
-47.08147 30.728292 82.87153
-47.01132 30.971443 79.65532
-47.045353 31.05219 80.660194
-46.76542 31.5053 81.29133
-47.070072 31.281551 82.22951
-46.89806 31.5715 83.35121
-46.661575 31.56295 84.37279
-47.250805 33.135113 76.047264
-47.41108 33.065517 76.39786
-47.119884 32.73535 77.548325
-47.703407 33.1797 78.061676
-46.683235 32.193474 83.43582
-46.626698 32.3721 84.23291
-46.53858 32.245655 85.278786
-47.08497 33.900463 75.36051
-47.310013 33.63469 75.60761
-47.53369 33.807888 78.74896
-47.291683 34.397278 75.26999
-47.191547 34.61403 78.94911
-47.050724 35.20113 81.23038
-47.113228 34.958755 81.81705
-47.066776 34.787296 82.607735
-47.0692 35.013374 83.30052
-47.704895 35.41434 75.76027
-46.998535 35.95872 79.1451
-47.471344 35.30934 81.92339
-47.30865 35.631237 83.501884
-47.11367 35.93108 83.93851
-46.941776 37.174404 70.027565
-47.353085 36.94275 70.76184
-47.21188 36.705135 71.392166
-47.17397 37.06275 75.33103
-47.552166 36.197323 75.96519
-47.28316 36.484818 83.91764
-47.19779 37.78693 69.88055
-47.5613 37.33293 70.42536
-47.01483 37.482388 72.55857
-46.957653 38.248104 73.32302
-47.378696 37.684994 74.70572
-47.612453 37.585903 84.852905
-47.402313 37.57742 86.379074
-47.557854 38.1051 87.40038
-47.39219 38.34014 87.83461
-46.897377 38.71831 69.277534
-47.234573 38.455635 69.662254
-47.3934 38.826115 88.23389
-46.71852 39.21902 89.20822
-46.775475 39.37069 91.83864
-46.799397 39.187794 93.38494
-46.936993 39.74034 69.06625
-47.391735 39.511024 69.7264
[...]
POINT_DATA 10921
SCALARS features_00 float 1
LOOKUP_TABLE default
0.3671019 0.3945312 0.40913787 0.65800697 0.6967604 0.693632 0.35569268 0.3632155 0.38030463 0.66545224 0.7125461 0.73511016 0.66213727 0.34864154 0.6457935 0.6987212 0.71277463 0.5916695 0.5743686 0.56049323 0.3958541 0.20074461 0.30552694 0.31469184 0.3304269 0.29128772 0.3747752 0.39391893 0.39240205 0.56098735 0.6031775 0.5776147 0.525396 0.27452105 0.34291577 0.36114055 0.41569752 0.3853484 0.60869914 0.6441187 0.558297 0.5223542 0.33661097 0.3538455 0.3555172 0.36578298 0.36100173 0.3407105 0.4935244 0.6056943 0.585845 0.51738864 0.47889984 0.20673579 0.24738568 0.2917779 0.34373915 0.3430547 0.32500127 0.32386464 0.5783281 0.65016246 0.6196645 0.6048796 0.5057233 0.22541289 0.29428154 0.2752496 0.25870818 0.50575334 0.5511807 0.5206413 0.5049454 0.66505134 0.70463693 0.60277617 0.57521236 0.6193298 0.61775446 0.571429 0.6031406 0.5981594 0.4227515 0.44420916 0.42658654 0.39763433 0.42048383 0.63678974 0.60390586 0.5708251 0.6258424 0.6444869 0.60586655 0.5207701 0.5620458 0.5758948 0.55544734 0.49107498 0.46918356 0.43009204 0.5020377 0.41691402 0.28369883 0.2975796 0.31173325 0.65328574 0.62700516 0.17441791 0.1920221 0.113270074 0.10485994 0.27211565 0.28181747 0.7038438 0.642259 0.55279815 0.11697407 0.17927139 0.17088382 0.040421866 0.07783967 0.47806126 0.3734669 0.47184283 0.45211434 0.6194793 0.60849434 0.5410874 0.50306296 0.11651538 0.16075155 0.10923611 0.082298815 0.5041477 0.47385195 0.4451119 0.5447973 0.4928021 0.4044255 0.27206707 0.18160339 0.23437358 0.14304455 0.485175 0.46508545 0.4336288 0.46886784 0.42633677 0.3369786 0.17650343 0.19160962 0.19091836 0.09640819 0.4201903 0.47301447 0.32584888 0.3949733 0.4449553 0.4541751 0.45233297 0.15906286 0.1734899 0.16318557 0.23293331 0.20564698 -0.0468179 0.45077395 0.40727893 0.3907648 0.3778785 0.39844722 0.4154821 0.13089725 0.15185823 0.1343895 0.10782275 -0.095314026 -0.02195419 0.08294302 0.4217715 0.41674417 0.36363918 0.10704577 0.13489197 0.17111944 0.14272344 0.038918268 0.08005909 0.13537447 0.1613633 0.15091963 0.1617824 0.19443843 0.16613148 0.11048172 0.10270278 0.17075987 0.22042996 0.19196871 0.12263757 0.19382387 0.3047996 0.42944798 0.46486384 0.16642949 0.29405525 0.41339254 0.54419965 0.6282295 0.6573398 0.41175795 0.59000283 0.6619065 0.7230592 0.721514 0.55427444 0.65163785 0.71302557 0.7569907 0.75616324 0.6657685 0.7222385 0.76322365 0.6128898 0.6358122 0.62999487 0.43298662 0.6217371 0.6746429 0.6791091 0.6910479 0.4081335 0.55093765 0.67900914 0.7039194 0.65895724 0.64525545 0.42816317 0.53796065 0.6018889 0.6021253 0.61003464 0.53815675 0.51232725 0.5072838 0.4774716 0.41308764 0.5284686 0.5778332 0.57097316 0.54416335 0.49914664 0.4461861 0.33819053 0.5448569 0.6043782 0.5448684 0.45193177 0.42742115 0.50153273 0.45468515 0.34576303 0.4917196 0.506529 0.57191694 0.31234705 0.122012034 0.35088998 0.43800342 0.47653836 0.46425927 0.36220568 0.3652747 0.4855507 0.561704 0.5205556 0.3115616 0.17046109 0.26938018 0.40822697 0.45920646 0.42810392 0.34497872 0.414226 0.2301126 0.32562917 0.3870859 0.39839172 0.28861845 0.28970036 0.34189245 0.3104651 0.3057249 0.17494985 0.17952001 0.5373206 0.6030265 0.59858286 0.57703257 0.094387054 0.13164072 0.26000983 0.44072556 0.5029129 0.4608512 0.45049936 0.28446126 0.18177636 0.2433787 0.27249998 0.28072697 0.36877427 0.08321517 0.27035704 0.27981633 0.21595228 0.65626097 0.7167243 0.6695715 0.011900395 0.1602386 0.18818465 0.64906096 0.7199345 0.48380744 0.19719687 -0.019216709 0.23759803 0.3202169 0.38245985 0.35622633 0.57232326 0.6027262 0.33471873 0.13650173 0.30491668 0.42077774 0.56049633 0.53767216 0.14022027 0.21229209 0.3744145 0.4513631 0.4742286 0.44313735 0.4207281 0.43038946 0.5497624 0.511697 0.3659039 0.15951462 0.21130866 0.3533952 0.46739203 0.4508432 0.44476885 0.45794386 0.47144258 0.52412933 0.46339113 0.34528553 0.23563953 -0.13870984 0.23699264 0.1930702 0.25226274 0.29055005 0.33848792 0.41396633 0.4529146 0.4738534 0.48049867 0.07244494 0.049447767 0.035362914 -0.25731078 0.3207636 0.23694949 0.2352183 0.1967771 0.2072489 0.24354053 0.29389158 0.3379441 0.37349263 0.42410195 0.46830386 0.07172551 0.08498471 0.29167092 0.35646558 0.3149634 0.055097677 0.1556162 0.22149286 0.43113273 0.37453544 0.33472234 0.19022578 0.18425721 0.08865546 0.06140711 0.068648204 0.5363458 0.5724021 0.3341775 0.27171588 0.1287324 0.11723709 0.12864122 0.08351922 0.5998881 0.15507644 0.19425268 0.64877945 0.58843744 0.35003424 0.54830956 0.7181225 0.38728583 0.41203552 0.40996376 0.51389587 0.6509464 0.7253526 0.7427763 0.7369433 0.38433558 0.42333567 0.44788826 0.46556085 0.36333424 0.51330584 0.42630315 0.4284706 0.41886714 0.28726408 0.5348525 0.5563073 0.54200757 0.619259 0.345756 0.2700029 0.10044891 0.21066602 0.6567819 0.6637658 0.07233921 0.3011418 0.6119318 0.3076744 0.55623776 0.5758196 0.27373266 0.40023735 0.46294138 0.47827464 0.5044118 0.49547815 0.390402 0.5314436 0.47781062 0.41135943 0.5622211 0.5395953 0.47007066 0.37837785 0.28378335 0.2942422 0.41735345 0.447128 0.5559585 0.5167108 0.46482947 0.34132516 0.33128056 0.4587238 0.56212425 0.5329097 0.3776157 0.3393919 0.31627622 0.36639592 0.2085223 0.5731127 0.51659596 0.30090693 0.06869549 0.2782448 0.24778403 0.13810885 0.1904794 0.20712754 0.55385685 0.48159844 0.36523032 0.25888488 0.1333018 0.16598666 0.15397552 0.20737769 0.28366536 0.395934 0.1686238 0.19828719 0.21093649 0.3795178 0.16980226 0.22661456 0.34027782 0.3634216 0.17657639 0.26869357 0.39878482 0.44490826 0.26354146 0.36620998 0.4954013 0.53847915 0.15804142 0.23777702 0.40826935 0.44398183 0.32738167 0.37460953 -0.04254102 0.06801628 0.17492352 0.19455168 0.3644907 0.2577675 0.059176866 0.096446365 0.18105987 0.0981452 0.63201046 0.11048832 0.5646727 0.61127603 0.63806343 0.3666767 -0.1581161 0.054876328 -0.07894611 0.5216262 0.55100024 0.08711852 0.1840123 0.18833087 0.5239115 0.10717346 -0.011693627 0.13393283 0.22262192 0.31992257 0.3613418 0.36930135 0.5391493 0.1961507 0.4026035 0.4176554 0.43387705 0.5107254 0.52824605 0.47413146 0.5070013 0.5177418 0.49414873 0.49144366 0.29795465 0.0022253916 0.17782268 0.12956996 0.49661276 0.49587828 0.02624099 0.019417211 0.30222636 0.29847318 0.21565726 0.31962812 0.40887478 0.44090044 0.31145525 0.29189894 0.46284905 0.46177572 0.5513208 0.5087693 0.49500078 0.40881974 0.29187623 0.38549146 0.53283364 0.47602338 0.41113713 0.4914596 0.6049724 0.6178063 0.5431218 0.6266253 0.6441922 0.66022396 0.6357936 0.42738855 0.37698418 0.15363255 0.08597067 0.49256313 0.6840223 0.7103634 0.72101367 0.41935146 0.37621382 0.31419215 0.20053264 -0.009910345 0.06689063 0.42917627 0.31360054 0.22575475 0.2220039 0.3174963 -0.05482465 0.2571448 0.3374674 0.56158143 0.23649567 0.29865286 0.3148772 0.15374908 0.62114227 0.66408205 0.3743502 0.32738677 0.21648619 0.3509571 0.4417706 0.4031174 0.4199312 0.39486825 0.36439583 0.3338256 0.605504 0.6277782 0.29554915 0.26706704 0.14527419 0.12241313 0.48650366 -0.023387639 0.31462425 0.41003737 0.36220634 0.43525958 0.25210732 0.2808863 0.34335893 0.6456405 0.69084835 0.56144357 0.53507316 0.44857705 0.3324231 0.28400695 0.57926387 0.5758646 0.5464822 0.21917973 0.17260325 0.15996698 0.20521864 0.28301167 0.5846443 0.57883453 0.26549494 0.14916717 0.028582208 0.1439698 0.17929748 0.21471563 0.20955403 0.5820266 0.58407444 0.20651963 0.09015143 0.22476186 0.1736238 0.110855594 0.19758683 0.2196912 0.21272476 0.5703511 0.5787512 0.21984398 0.22306687 0.24631062 0.55612135 0.5411581 0.27763432 0.29114765 0.33243114 0.43767312 0.33045313 0.17836942 0.030267848 0.102812275 0.36142412 0.39556122 0.027833417 0.4170554 0.16990045 0.39173907 0.36423808 0.12232764 0.35602492 0.31207514 0.07931837 -0.17469934 0.4677561 0.46615443 0.47892293 -0.33318695 -0.29100102 0.45027655 -0.14223419 -0.10561523 0.05274456 0.056960315 0.037828766 0.17151725 0.23251712 0.26357013 0.4730144 -0.03419683 -0.043490365 0.17495793 0.3106147 0.32584104 0.36363986 0.46836698 0.48768657 0.40626717 0.4578779 0.49980137 0.48961234 0.4839921 0.49344757 0.52712053 0.47122067 0.52496463 0.43347764 0.2665884 -0.5151432 -0.01452639 -0.026806295 0.47133493 0.20176761 0.32044804 0.2696428 0.42021298 0.4043934 0.39110842 0.51636183 0.31440476 0.043134794 0.5228409 0.4566418 0.44976395 0.37792903 0.39964113 0.6705334 0.7274363 0.6933921 0.62143624 0.5300833 0.5894425 0.5672581 0.63067394 0.45558748 0.34594488 0.7243986 0.67971253 0.74631596 0.73760927 0.6983704 0.4413219 0.38654637 0.3355632 0.766325 0.75664103 0.36494195 0.3619634 -0.2740111 0.3133947 0.28315592 0.34253034 0.21773432 0.12641063 0.3644964 0.30205366 0.35677314 0.28966677 0.2867009 0.23868927 0.15730026 0.14796688 0.33708647 0.1860706 0.034260385 -0.062243056 0.23480758 0.22229351 0.1139408 0.085943244 0.14789616 0.31993064 0.2579602 0.18185723 0.17141318 0.47463265 0.42501318 0.4988606 0.5366509 0.5683928 0.41706777 0.5675271 0.6551338 0.73026675 0.7082747 0.6211177 0.7402204 0.7604249 0.74149156 0.5089804 0.42934275 0.4577134 0.2826761 0.34993917 0.53507364 0.5441746 0.48920962 0.47692284 0.3173329 0.08391659 0.0928006 0.08990037 0.31516337 0.1636437 0.16148356 0.26003966 0.34764278 0.56365573 0.12792267 0.12249902 0.049064282 -0.14649954 -0.0972025 0.19505402 0.28766742 0.3142099 0.5152135 0.078359485 -0.1519762 -0.0517722 -0.0666396 0.043497056 0.20931517 0.21085994 0.19148622 0.54070497 0.19799775 0.20904848 0.48027793 0.52252936 0.2216415 0.26487434 0.5120752 0.28424358 0.31847256 0.49108222 0.40308252 0.28213292 0.114694744 0.37609136 0.27401504 -0.033444494 -0.17017978 -0.12172221 0.37644017 0.36034375 -0.22948992 -0.27957505 -0.2943576 0.30532646 0.31763983 -0.24788685 0.16618156 0.1623706 0.19665003 -0.28608868 -0.16716611 -0.2803847 -0.22375424 -0.1173482 -0.08788105 0.3817632 0.3132762 0.31168753 -0.4474551 0.1969788 0.21795598 0.23582432 0.40395576 0.35081106 -0.21384984 -0.052976064 -0.07174648 -0.08734771 -0.0006789863 0.12003812 0.2234847 0.24471012 0.24432205 0.4117971 0.28573793 0.36401224 0.39970574 0.4386375 0.46286076 0.4286493 0.41252035 0.5225079 0.43855697 0.41261715 0.50104064 0.48137107 0.36814776 0.33433485 -0.36357602 -0.24127914 0.43606344 0.41883647 0.27268502 -0.67002875 0.2691116 0.377402 0.06261666 0.28138164 0.49331683 0.3848194 0.2703285 0.6496814 0.73042274 0.6278337 0.49858576 0.22190616 0.34130272 0.6086775 0.51228225 0.31380928 -0.032466657 0.25220424 0.6896866 0.52329415 0.64416444 0.65332603 0.58603984 0.43194404 0.03789133 0.6729392 0.7753509 0.7492774 0.7066081 -0.06767757 0.017197415 0.13056159 0.75859153 0.7587373 0.22062987 0.057311296 0.3430289 0.27695134 0.23347002 0.80672526 0.846654 0.85554934 0.7591342 0.29978576 -0.13825627 -0.019034112 -0.092658855 0.15244615 0.30050445 0.29130727 0.83667856 0.8752846 0.87272954 0.7192275 0.25285017 0.26916236 0.262737 0.26806623 0.3125662 0.86659706 0.8656587 0.8076157 0.6357258 0.25802466 0.27077323 0.23472127 0.1875757 0.15913045 0.26195297 0.28005284 0.020745896 0.27070722 0.3288538 0.31895742 0.1755619 0.2186797 0.120282985 0.15625712 0.37920702 0.039784458 0.07474186 0.47865775 0.49824095 0.27917588 0.18591608 0.58661175 0.5912653 0.6182525 0.66345 0.6748537 0.73674345 0.74655664 0.7198174 0.66815794 0.7207724 0.70785975 0.6877903 0.6569421 0.6647812 0.67560035 0.63585365 0.4947795 0.33110458 0.37734368 0.42762655 0.6213254 0.5650131 0.55637926 0.44564813 0.29443756 0.28426108 0.39282402 0.41702446 0.44479486 0.24151894 0.27269286 0.5499704 0.48757258 0.2247494 0.35339618 0.4415046 0.47341907 0.47307003 0.26114178 0.3320039 0.12386416 0.113268994 0.08761721 0.079881735 0.27894485 0.1791718 0.09224287 0.22805153 0.4495951 0.44729674 0.47870472 0.08400746 0.032999422 -0.056159213 -0.14210173 0.3546654 0.3550383 0.45149833 0.27246222 0.39179093 0.20049186 0.43077052 0.46012247 0.24989009 0.30483532 0.38479203 0.35241455 0.4443279 0.3896932 0.39806783 0.46107066 0.2936712 0.083440796 0.39637268 -0.11217805 -0.17640767 0.21239734 0.2787494 0.16329315 -0.05417649 -0.11882236 0.17075731 0.1997647 0.13403934 0.023518875 -0.09266207 -0.065040134 0.026861213 0.37500513 0.21469252 -0.14925945 -0.13127023 -0.15694185 -0.10577358 0.15553966 0.1914664 -0.37919697 -0.24876004 -0.18060535 -0.04961794 0.057383545 0.1595413 0.20883366 0.24607162 0.27391136 -0.11415749 0.010946624 0.26908296 0.14902201 0.30065936 0.3275593 0.38795185 0.3289267 0.43094224 0.32884252 0.45158207 0.31215173 -0.36823022 0.38895532 0.22019273 -0.1882329 -0.24738348 -0.11290709 0.34863928 0.34948456 -0.07204719 0.49719203 0.39347756 -0.15656982 0.618001 0.58377033 0.53731906 0.24084494 0.056493096 0.36517167 0.50437176 0.21833271 -0.120321564 0.3390556 0.38630575 0.60131663 0.5565813 0.30191275 -0.1010111 0.73089117 0.67697954 0.6333032 0.19322412 -0.066833064 0.47524554 0.2361218 0.06539712 0.008569181 0.6808665 0.6464175 0.58705854 0.52105963 0.15020618 0.33408082 0.7041669 0.37270254 -0.049633652 0.2725811 0.2995997 0.4682779 0.5030984 0.7311665 0.76469934 -0.17017034 0.3863029 0.46634135 0.5163691 0.8479807 0.8779509 0.6876644 0.32895926 -0.017260924 0.35248268 0.4492414 0.4912873 0.87431574 0.8173939 0.68940675 0.52261615 -0.021774072 0.06349496 0.2945503 0.34566873 0.33911365 0.23817042 0.19797441 0.29398817 0.36961773 0.36051112 0.27055168 0.12398718 0.20158033 0.49119943 0.09615226 0.09795299 0.5561662 0.62271935 0.684049 0.7075393 0.71790254 0.6091876 0.5855677 0.7063165 0.7018678 0.6731386 0.67148226 0.6399491 0.6002219 0.7045888 0.6912944 0.6476722 0.54616344 0.41792384 0.38055605 0.58023226 0.57391477 0.53078806 0.6984277 0.37073788 0.32260987 0.39330745 0.43527645 0.43400455 0.31935304 0.47536606 0.4950887 0.3395528 0.641459 0.4449488 0.44005188 0.11064467 0.37429255 0.2912405 0.24195306 0.536312 0.4787265 0.495283 0.18309355 0.15108763 0.080930576 0.48948008 0.34143448 0.43578523 0.3572253 0.3019494 0.2833267 0.29381412 0.2546747 0.33523524 0.37063047 0.45342737 0.20167047 0.5455177 0.2010762 0.5154991 0.53346056 -0.07637192 0.44046688 0.48235595 0.13883352 -0.039460972 0.33268735 0.43756425 0.344353 0.2922567 0.10728937 0.03737703 0.37692302 0.35731286 -0.09022595 0.38637412 0.37116286 -0.091519386 0.18593718 0.19763102 0.26227915 0.20206259 0.37375635 -0.23611566 0.09106227 0.25220856 0.30763742 0.30476075 0.10837767 0.26093227 0.24506241 -0.04141318 0.17512858 0.15358454 0.17012328 0.19394162 0.26281673 0.39472497 0.2412897 0.31839806 0.23120272 0.20606136 0.3060455 0.16147153 0.08552408 -0.15340027 0.3360661 0.38561574 0.22313431 0.3620321 8.590659e-05 -0.0068723653 -0.22674389 0.44746554 0.3394798 0.15757544 0.46044356 -0.13094048 0.48577464 0.3573352 0.024685614 0.16874117 0.5372926 0.0059980955 -0.1101101 0.23510489 0.33332044 0.5756753 0.5697477 0.0298829 -0.05309549 0.5301243 0.57203984 0.03753642 0.107083224 -0.053893104 0.46328634 0.27628976 0.24152021 -0.03257016 0.09255953 0.539991 0.5275963 0.21431202 0.3760695 0.49649394 0.6441266 0.57164145 0.5543975 0.59886223 0.7110268 0.6799587 0.55246407 0.58200693 0.8322634 0.46043348 0.5057289 0.8468629 0.8488232 0.7760494 0.4870988 0.33491054 0.025095075 0.39991888 0.4106968 0.7796061 0.73645455 0.5560826 0.08676452 -0.04176981 0.36149764 0.046293903 0.004866246 0.3636763 0.36163527 0.118414365 0.18409403 0.21383874 0.2856796 0.3665946 0.16627613 0.21909165 0.21162929 0.64891875 0.3274194 0.69231665 0.6999867 0.604576 0.56425023 0.69738936 0.6760753 0.62092996 0.661643 0.63053876 0.57705104 0.61199796 0.6065897 0.6983706 0.6798626 0.5505921 0.37528038 0.36175188 0.4002511 0.52144516 0.6053927 0.5980158 0.5493306 0.42306113 0.410469 0.23133034 0.33437526 0.48581338 0.36597186 0.58965135 0.41097343 0.4213804 0.4052759 0.39179927 0.26784045 -0.04851119 0.29111326 0.16803022 0.41693157 0.45499578 0.40285125 0.37233576 0.102889515 -0.15276808 0.11614707 0.04535792 -0.1578676 0.44322282 0.42626527 0.41722703 -0.037333466 -0.3718762 0.40247914 0.3715963 0.17868553 0.29213268 0.115131184 0.23315927 0.46127883 0.020972367 0.52096605 0.56829077 -0.12156336 0.5587953 -0.02756305 0.4925627 0.24668983 0.14881259 0.36763814 0.42885032 0.2816967 0.36511433 -0.13579448 0.2911088 0.25947243 0.17151757 0.35996127 -0.22733746 0.21569915 0.10652494 -0.021647079 0.02048948 0.3250499 0.2766545 0.2914585 0.27183354 0.1633825 0.258118 -0.02256313 -0.025431737 0.22385885 -0.056134798 -0.081022546 0.19391327 0.064054444 0.17009303 0.191362 -0.39810196 0.2847588 0.02777813 -0.11212954 -0.06615768 0.4003647 -0.014310212 -0.2142508 -0.06936272 -0.1400581 0.509683 -0.21853413 0.060085624 0.12587272 0.5691243 -0.120648965 0.34318048 0.48707396 0.5355933 0.55525434 0.011570216 -0.034782633 0.5419545 0.12411886 0.105462365 0.07468584 0.30107814 0.16754915 0.05940536 0.3706393 0.42744094 0.31854296 0.3394371 0.5109873 0.57859325 0.5880243 0.5275433 0.60570276 0.6745827 0.59002984 0.7642052 0.49890912 0.5466223 0.80033994 0.7572181 0.34983334 0.388492 0.44015425 0.7477021 0.67324436 0.55801404 0.418611 0.13680106 0.28518096 0.3351435 0.2228727 0.2004818 0.24942972 0.15953271 0.19767049 0.21059997 0.30740327 0.2446168 0.32157162 0.091199115 0.20973149 0.28691596 0.6818726 0.67677367 0.62168497 0.5032541 0.36821395 0.6493803 0.6363132 0.57065344 0.60511756 0.59205353 0.5833769 0.6339779 0.6234994 0.5067462 0.3476005 0.32577384 0.4015772 0.42138582 0.38654077 0.5073599 0.5712137 0.54334927 0.44099122 0.5806833 0.36544806 0.3437094 0.30857122 0.30894852 0.266799 0.43478784 0.3925801 0.43584788 0.27100152 0.32526731 0.28986123 0.26508057 0.39491385 0.42950892 0.38716164 0.30360013 0.14762123 0.4082054 0.23642166 0.18737124 0.42827985 0.01906475 -0.4194277 -0.46223408 -0.30526656 0.37063915 0.6199957 0.18723634 0.1904663 0.19391161 -0.62635005 0.2587309 0.6653571 0.6417491 0.59143734 0.24610919 0.22943017 0.23048544 0.26235795 0.15888835 0.68891335 0.69585425 0.641853 0.44159257 0.21068753 0.2259816 0.25033876 0.69175744 0.67473924 0.6249257 0.46091098 0.38001433 0.29234707 0.28919333 0.36793533 0.4474957 0.6566198 0.5666455 0.43361676 0.41804862 -0.27658665 0.51109105 0.46628606 0.47262943 -0.2080454 0.55183715 0.09149886 -0.0124105215 0.5057635 0.22113554 0.4567883 0.30997574 0.32692283 0.19858283 0.16602816 0.050267015 0.34800023 -0.03838756 0.22438681 0.25124162 0.112716 0.26126137 -0.009016142 0.29577875 -0.07023387 0.27930164 0.025925374 0.23691152 0.15041023 0.19210175 0.066644914 0.3280354 0.061810046 -0.12692218 -0.2664823 -0.24945208 -0.29062557 -0.32030922 0.384358 -0.31622693 -0.31475586 -0.14107269 -0.022499744 0.5386398 0.49886215 -0.45610112 0.08076172 0.48792005 0.5307979 0.5521917 -0.0023593046 -0.01890491 -0.12631868 0.34930646 0.44349688 0.48824435 0.5227683 0.027144078 0.019593729 -0.15574592 0.10050696 0.14869781 -0.35017404 -0.1007918 0.10150801 0.14690503 0.20047548 -0.09660709 0.007524073 0.1255553 0.23548473 0.4222536 0.5098953 0.45551786 0.5853891 0.5802667 0.52288806 0.55631214 0.560148 0.6609961 0.6104671 0.46358687 0.51043946 0.70196337 0.6687778 0.52382517 0.31502932 0.39403543 0.58144724 0.4544866 0.3006142 0.09149851 0.086534694 0.20658293 0.3080961 0.1329223 0.22154728 0.11538718 0.23091981 0.2663316 0.16505043 0.27961916 0.051633522 0.31932977 0.23974037 0.5469371 0.33522633 0.38328183 -0.046470493 0.11785056 0.18160199 0.31292668 0.6089658 0.6149313 0.6136638 0.54932237 0.5889199 0.602895 0.603609 0.5299269 0.52821565 0.5136819 0.48890153 0.4117867 0.5702128 0.55477554 0.45364028 0.1923897 0.26583007 0.2572777 0.41695845 0.3413265 0.3456152 0.32888043 0.5327518 0.50864476 0.38093978 0.29367608 0.2735496 0.34253314 0.2703553 0.26099497 0.19471046 0.42448056 0.4159201 -0.17449844 0.25368762 0.29626623 0.084519595 0.031063154 0.0063925134 0.23615833 0.22449055 0.29216906 -0.14602262 -0.38577113 0.20074514 0.59326243 0.5806986 0.48210847 0.25679964 0.21367092 0.17969644 0.3001743 0.008192945 0.6431641 0.65251863 0.21565247 0.18277308 0.110040545 0.2563938 -0.03688493 0.13419123 0.6747135 0.6831449 0.08565873 0.0659085 0.665972 0.6754596 0.20286736 0.3531934 0.32232144 -0.04780