# vtk DataFile Version 2.0
Really cool data
ASCII
DATASET POLYDATA
POINTS 6450 float
32.281025 55.995243 -7.195148
32.251816 56.020466 -6.6857214
32.21885 56.689423 -8.892938
32.137154 57.10106 -8.814934
32.0259 56.607307 -7.5758543
32.069206 56.44294 -6.8530383
32.333202 56.44425 -5.6460385
32.286922 56.646416 -3.2766564
32.288822 56.627083 -2.3396704
32.363293 56.631725 -1.9421982
32.036976 57.6727 -9.175307
31.773502 57.831356 -8.28471
31.703302 57.82826 -7.6986146
32.012398 57.639744 -6.5499277
32.319115 57.69448 -4.4375076
32.253063 57.89501 -3.1730225
32.337135 57.65435 -2.638153
32.40137 57.737907 -2.114022
32.220654 58.563095 -9.671896
31.92339 58.427353 -9.308676
31.61812 58.566788 -8.522551
31.600473 58.576794 -7.635601
31.85838 58.225327 -6.6147923
32.392403 58.539433 -4.292792
32.394035 58.620235 -3.5468287
32.381397 58.776184 -2.9311826
31.884922 59.197456 -9.099472
31.67937 59.335464 -8.405169
31.667645 59.378307 -7.6397314
31.955883 59.40545 -6.7040114
32.23655 58.91533 -5.992299
32.436783 59.065815 -3.272585
32.158775 59.763832 -9.100509
32.072243 59.947014 -8.437529
31.97362 59.997917 -7.623715
32.119873 59.899693 -6.868001
32.23829 67.13032 -6.2927256
32.144855 67.02935 -5.41289
32.32669 66.813385 -4.5637574
32.420277 66.78773 -3.8455498
32.348824 67.77148 -6.8626785
32.156597 67.609024 -6.261181
32.081345 67.59476 -5.693453
32.26089 67.5587 -4.7744007
32.432964 67.0976 -3.8154914
32.33828 67.98456 -6.7675133
32.247032 68.125534 -6.2757173
32.212185 68.18251 -5.6599464
32.329132 68.00523 -5.0893397
33.31191 52.19206 -9.231175
33.257614 52.19276 -8.832775
33.301582 52.789722 -9.838813
33.1131 52.605354 -9.317103
33.046597 52.57201 -8.667984
33.055676 52.779926 -7.851214
33.2327 53.286068 -9.972117
32.928497 53.655373 -9.395257
32.765133 53.368862 -8.312849
32.880737 53.727993 -7.6025186
33.108917 53.39807 -7.042341
33.322365 54.34314 -1.955479
33.317204 54.922337 -10.163518
32.921364 54.326122 -9.384201
32.80335 54.540302 -8.644516
33.153023 54.794483 -5.203905
33.095535 54.731724 -2.1709495
33.214336 54.568386 -1.482091
33.276794 54.70546 -1.0715821
33.29375 55.67249 -10.318518
33.005028 55.177956 -9.465688
32.72091 55.25539 -6.983194
32.628872 55.49847 -5.3885326
32.523846 56.113583 -4.5826535
32.542255 55.62341 -2.4858408
32.638844 55.802425 -1.6703305
33.120388 56.024963 -0.77211016
32.994495 56.428513 -10.242477
32.557934 56.154728 -4.9925947
32.536823 56.44922 -1.6861924
32.859447 56.69555 -0.9635866
32.82933 57.276752 -10.069911
32.5844 57.386883 -1.4958837
32.961357 57.519176 -0.9826795
32.90088 58.462708 -1.6478639
33.13612 58.25531 -1.1607195
32.66115 59.0 -5.763264
32.526917 59.34489 -3.5668151
33.38129 60.908978 -14.044251
33.389584 60.924057 -13.731929
33.298885 60.62826 -11.553706
33.28109 60.86196 -11.097707
32.63309 59.938576 -9.336933
32.945633 60.42795 -6.7627926
33.3062 60.05283 -5.8384194
33.108326 60.178818 -4.54523
33.158726 60.302372 -2.8280067
33.23653 59.873653 -1.8102515
33.36717 61.512337 -14.26651
33.28959 61.40652 -13.615412
33.404728 61.495388 -12.717245
33.392036 61.323044 -11.599394
33.31102 60.91445 -11.011434
32.976345 60.66381 -6.6765676
33.360092 61.9096 -14.088635
33.394485 62.050465 -13.868147
33.440655 64.01378 -4.1891575
33.263233 64.85177 -4.664833
33.16427 64.35201 -3.289866
33.246357 64.456345 -2.596925
33.375244 64.634636 -2.1592607
33.22605 66.24126 -6.7058854
32.637577 66.18684 -5.2084694
32.887592 65.540695 -4.3540063
32.83111 65.559456 -3.5749946
33.204353 65.42439 -2.4177208
32.91846 66.90844 -7.0030904
32.5964 66.80299 -6.5302854
32.60764 66.41551 -4.9731526
32.498505 66.39107 -4.8888483
32.58006 66.55161 -3.6023192
32.796234 66.550156 -2.9493718
32.775005 67.60299 -7.1981688
32.50826 67.51173 -4.2296476
32.551662 67.265945 -3.7338958
32.919617 67.08506 -2.7799048
32.818245 68.25315 -7.0765734
32.513866 68.436806 -6.438245
32.451153 68.52317 -5.660547
32.604977 68.27276 -4.8808713
32.95936 68.12916 -3.8598552
33.480778 68.11549 -2.0825887
33.48965 68.6746 -1.4002976
33.47242 68.69954 -0.4998031
32.753944 68.774864 -6.222691
32.813526 68.78933 -5.6997404
32.781723 68.65627 -5.1363196
33.456463 69.14376 -1.1909108
33.456356 69.15452 -0.73606247
33.871655 52.101376 -9.810865
33.68028 51.98053 -9.388035
33.638203 51.858578 -8.54601
33.805744 51.989212 -7.580004
34.17522 51.897533 -6.8238435
34.235447 52.25963 -6.037775
33.699516 52.722298 -10.185883
33.443867 52.3141 -9.683697
33.450157 52.392715 -7.393023
33.677147 52.805885 -6.201081
33.465805 53.191124 -5.9079485
33.953857 53.729725 -10.840949
33.540405 53.40149 -10.329787
33.85022 53.476025 -5.2529736
33.689095 54.06852 -2.1499846
33.70469 54.13188 -1.4004493
33.840446 54.217247 -1.0185659
33.722908 54.714466 -10.85456
33.544346 54.52983 -10.562587
33.43649 54.42874 -2.8451657
33.616627 54.62533 -0.81792
33.764313 55.50943 -10.844295
33.434383 55.612137 -10.497138
33.53453 55.541473 -0.5431941
33.76394 55.725147 -0.34190258
33.640446 56.51174 -10.870931
33.370434 56.454144 -0.57260686
33.78849 56.567917 -0.4004737
33.456352 57.434196 -0.61655796
33.741093 57.15016 -0.4047792
34.118362 59.170376 -11.963788
34.260464 58.142754 -10.833308
33.5284 58.200367 -0.893505
34.11817 60.162853 -14.151711
34.058342 60.13087 -13.522179
33.6273 59.63179 -11.282844
33.399364 59.565876 -1.5298893
33.764275 59.107258 -1.25318
34.032284 60.844875 -15.01111
33.73535 60.719074 -14.40584
33.71298 60.299747 -12.923237
33.413933 60.38365 -9.147312
33.631535 59.99553 -1.7736897
33.792763 61.555325 -15.027437
33.520485 61.670517 -14.684086
33.656097 61.657185 -11.456869
33.59153 61.312717 -10.752939
33.814877 60.762882 -7.923703
33.548676 61.262104 -5.253342
33.79331 61.344208 -3.3858862
33.69433 60.949142 -2.6353388
33.985054 62.024822 -15.176636
33.631546 62.238087 -14.390103
33.521507 62.1908 -13.5584
33.794422 62.1837 -12.500557
33.610516 61.757454 -11.771414
34.260754 61.80283 -10.636132
34.01897 62.226345 -6.301094
33.808815 62.91745 -4.36002
34.08038 62.80859 -2.5713365
34.24252 63.007988 -2.13543
33.87217 62.721348 -14.210316
34.06293 62.6924 -13.631354
33.637222 63.34919 -4.580558
33.50179 63.63527 -3.2359436
33.603218 63.202682 -3.004999
34.00054 63.485054 -2.2681131
34.070683 64.12934 -5.7438154
33.69685 64.335526 -5.389826
33.625313 64.468414 -1.9201443
34.155426 66.20599 -7.0144567
33.85175 65.29689 -1.6439931
34.038074 65.76623 -1.3244271
33.78606 66.85871 -7.5082226
34.101833 66.343445 -1.1751239
34.323364 67.25017 0.034896374
34.4394 67.94215 -19.369131
33.51871 67.84758 -7.7503967
33.24506 67.379364 -7.5478516
33.644657 67.0368 -1.6440412
33.769623 67.85223 -0.51406765
34.03124 67.9238 0.38649946
34.301693 68.00609 0.8929838
33.42284 68.17182 -7.597665
33.42572 68.57794 -7.3663025
33.45467 68.23025 -3.471323
33.81644 68.43211 -2.4672594
33.59044 68.59352 -1.6411885
33.547245 68.63629 -0.44394445
33.81753 68.599365 0.35346472
34.282204 68.3991 1.0401732
33.572216 68.8682 -7.0316525
33.45382 69.03783 -6.457905
33.666126 69.07293 -5.6136336
33.665813 68.75969 -4.797738
33.64286 68.58054 -3.8942506
33.885777 69.07752 -2.0621414
33.71042 69.38415 -1.694512
33.617294 69.448654 -0.54035604
33.904438 69.329956 0.33410424
34.248837 69.244415 0.9223131
33.99651 70.24148 -1.3004559
33.85981 70.08601 -0.77609813
34.122192 70.167114 -0.0017569363
34.391068 70.84522 -1.2114626
34.400658 70.95832 -0.9890051
34.74803 51.391865 -8.4788475
34.814255 51.353447 -7.528425
35.08374 51.336964 -7.0146785
34.530613 52.1594 -10.118713
34.270252 51.720627 -9.3506565
34.237785 51.53289 -8.650798
34.53207 51.497707 -7.604833
34.78242 51.731712 -6.5266333
34.677536 52.07635 -5.897274
34.93464 52.35379 -5.253928
34.568977 53.032963 -10.895603
34.578377 52.6605 -10.58714
34.562717 52.48033 -5.4148245
34.778385 52.721443 -5.01324
34.50875 53.650894 -11.177194
34.800114 53.42891 -4.5882263
34.69541 54.092163 -3.6068907
34.59082 53.9112 -2.3010724
34.421253 53.908146 -1.5510908
34.47499 54.179546 -0.93493223
34.624836 54.476734 -11.413188
34.264656 54.625 -0.4943568
34.82493 55.116245 -0.32653183
35.068394 55.19798 -11.602976
34.786533 55.546207 -11.429156
34.39092 55.522224 -0.23618183
34.48761 56.22141 -11.125608
34.466785 56.324554 -0.29543793
34.182858 57.790363 -0.66669637
34.833782 59.25072 -13.415576
35.015316 58.542294 -12.165688
34.146255 58.164066 -0.7648041
34.737183 60.29866 -14.894694
34.79407 59.776077 -14.243521
34.445736 59.6508 -13.395587
34.644424 58.843185 -1.0924753
34.55996 60.757877 -15.187264
34.557568 60.519672 -1.8836578
34.5496 61.714355 -15.526779
34.29762 61.602833 -15.382256
34.34638 61.46667 -10.201242
34.549477 61.409206 -2.224304
34.55862 62.36085 -15.246922
34.769558 62.68578 -10.548778
35.078346 62.77556 -9.6156435
34.437096 61.9355 -7.7039795
34.398144 62.2561 -2.6376407
34.62514 62.920307 -2.0015986
35.456196 63.59297 -21.347342
34.419785 62.702473 -14.836887
34.60159 62.895348 -14.381222
34.59827 62.704144 -12.434071
34.79021 63.22533 -11.601676
35.004135 63.935524 -9.317772
34.671017 63.685005 -1.5521258
35.271336 64.740074 -22.300678
34.929 64.58765 -11.2867775
34.788124 64.787346 -10.286437
34.945484 64.23891 -9.501952
34.539684 64.22436 -6.1014943
34.915234 64.64979 -1.0185434
35.13775 65.7562 -22.931871
35.011673 65.75153 -22.49231
34.751823 65.91813 -21.658745
35.066185 65.78732 -20.477837
34.910976 65.15905 -11.152001
34.85995 65.317795 -10.434869
35.00768 65.52606 -9.5534
35.343067 65.43851 -8.4387455
35.062042 65.97314 -7.583297
34.287704 65.566124 -6.643552
35.13693 66.61713 -23.21875
34.777752 66.77401 -22.535995
34.663315 66.28119 -21.90338
34.765327 66.648155 -20.494957
34.748196 66.86822 -19.568285
35.024918 66.90792 -18.747019
35.195282 66.20896 -10.493427
35.262787 66.450134 -9.63429
34.406242 66.425255 -0.9815248
35.022648 66.55529 0.07235885
35.12883 67.199066 1.4437417
35.15459 67.53005 -23.123465
34.78304 67.338295 -22.360268
34.75701 67.6707 -21.271778
34.563557 67.599464 -20.175667
34.532726 67.75594 -19.532059
34.757862 67.62339 -18.624918
35.083378 67.61554 -18.134846
[...]
POINT_DATA 6450
SCALARS features_00 float 1
LOOKUP_TABLE default
0.17820202 0.14853428 0.29528177 0.3497233 0.29733562 0.21120441 0.14301191 0.30887452 0.46792406 0.5306808 0.39275956 0.43984812 0.4315998 0.31042686 0.17758752 0.30866224 0.40655994 0.48686397 0.4101045 0.4540419 0.49573946 0.48734325 0.37118542 0.16027674 0.23449364 0.34267378 0.5039448 0.52073216 0.4998724 0.38516104 0.25838703 0.28239918 0.47512302 0.48730713 0.46552342 0.3769735 0.70424163 0.59777397 0.4688676 0.39155775 0.75794446 0.72791344 0.6687126 0.54478216 0.39895147 0.76365304 0.74448764 0.68300307 0.601163 0.5679995 0.57366323 0.5240536 0.547158 0.55912757 0.5344565 0.48465756 0.47623342 0.51087934 0.40852606 0.41398335 0.67990553 0.31458288 0.39922094 0.36598364 0.16022956 0.6493237 0.7043713 0.7270311 0.24149744 0.27001134 0.12733018 0.12106169 0.16381691 0.5220294 0.6351522 0.6422355 0.20061862 0.14449635 0.5733381 0.58650076 0.21070847 0.5467324 0.5446253 0.4961034 0.49324724 0.19279462 0.2346604 0.70479167 0.67951053 0.34866965 0.23143017 0.36774862 0.2707827 0.12885988 0.08961863 0.3355186 0.35527316 0.74835956 0.67244124 0.5242591 0.2871874 0.21056738 0.22441827 0.7334913 0.6984588 0.28431228 0.29142448 0.31415004 0.32180557 0.3110063 0.48368764 0.44548425 0.3234748 0.32559437 0.29115862 0.6479515 0.6675203 0.45288736 0.44496685 0.3500923 0.27957502 0.73269117 0.45927033 0.38462275 0.2494448 0.76155454 0.7547302 0.68270916 0.5672186 0.376129 0.2260925 0.33984378 0.41312563 0.7333275 0.67584044 0.60223424 0.37313887 0.41247743 0.5516362 0.5698869 0.5867294 0.5526073 0.5048542 0.45370102 0.5173101 0.5519155 0.5277115 0.4369276 0.39650407 0.4249478 0.46504962 0.36366293 0.6660247 0.7180942 0.7435485 0.32979843 0.34923947 0.57907784 0.7456515 0.26703757 0.2518525 0.69242656 0.66842484 0.18771549 0.6012162 0.58548427 0.5384477 0.54621065 0.33795103 0.011554755 0.4824847 0.60844386 0.5586715 0.38953483 0.37377137 0.38907158 0.75445205 0.70910317 0.57147574 0.14316371 0.3054729 0.82082736 0.7903178 0.23560636 0.14400958 0.22770107 -0.04325716 0.049440682 0.14164385 0.86058104 0.78468686 0.63681185 0.38241178 0.2748528 0.12376751 -0.09839225 0.20718539 0.1874232 0.19065955 0.77388036 0.66638654 0.23339275 0.32012975 0.29132703 0.27039668 0.083618574 0.2110624 0.3027856 0.26893905 0.2690291 0.22151564 0.5132741 0.18933564 0.26531267 0.59875757 0.6602893 0.6640588 0.24310708 0.3510567 0.37652892 0.39617372 0.69551766 0.72001994 0.26347083 0.21275914 0.31513286 0.41508818 0.4503835 0.43918908 0.73270345 0.7345388 0.6309308 0.51317793 0.3275015 0.2920538 0.34028065 0.43934864 0.4846696 0.47740796 0.4164271 0.4417926 0.47910315 0.43336552 0.44060588 0.58884573 0.5640615 0.5470693 0.5355487 0.5758717 0.59156096 0.56277096 0.50421005 0.46019834 0.40605766 0.4659295 0.49676648 0.41729409 0.3825741 0.4194633 0.3016525 0.24543098 0.6046325 0.693359 0.75483537 0.3511904 0.7528467 0.72372425 0.26483637 0.25787026 0.68589294 0.20162943 0.60056263 0.4794982 0.3627314 0.09127773 0.44997436 0.6187165 0.4997092 0.45468616 0.34097612 0.7326324 0.12459928 0.87130284 0.8634261 0.025992904 -0.0316606 0.8807992 0.058529917 -0.06244308 -0.15216443 0.056760952 0.13604891 0.5330396 0.8603546 0.81678396 0.3262208 0.091818586 0.06543098 0.20424208 0.41519886 0.37477386 0.26990598 0.12633549 -0.05088588 0.18331794 0.4716271 0.45703542 0.4398225 0.3667063 0.43721387 0.33035013 0.23816305 0.02418486 -0.07895629 0.053303815 0.54460096 0.5519363 0.49353528 0.49123433 0.5262136 0.5021031 0.27816415 0.20424652 0.16402985 0.14153102 0.359196 0.6039245 0.5844319 0.5423757 0.54747206 0.5873977 0.59462583 0.53316045 0.19423443 0.41295657 0.37911516 0.47505432 0.58267546 0.5454193 0.5493828 0.5904836 0.6439704 0.44330156 0.49462014 0.5281391 0.53453326 0.5531856 0.61951256 0.6548009 0.64388204 0.6232074 0.4676361 0.54286003 0.15641984 0.4654377 0.48274577 0.6411414 0.6491033 0.6248828 0.38668996 0.47035992 0.42078352 0.6189331 0.60811704 0.5833489 0.38429078 0.41399297 0.44162092 0.43447956 0.36362845 0.3948494 0.39184892 0.5957999 0.5868721 0.5640644 0.53233755 0.5774134 0.5910024 0.54003024 0.4526518 0.42004612 0.45194066 0.34942347 0.29630768 0.14233191 0.3074822 0.43918976 0.6485286 0.75227726 0.754223 0.72040933 0.6618965 0.60803694 -0.066739514 0.5060371 0.27650514 0.32998514 0.5155251 0.39651677 0.09505243 0.7980548 0.8036139 0.6933629 -0.079649776 0.72587407 0.74083114 0.76326567 0.83886814 0.7704226 -0.09703706 0.6717944 0.68402505 0.6940805 0.7504042 0.6399275 0.81816363 -0.044353187 0.5468801 0.5467388 0.53371555 0.5472008 0.51187396 0.84047484 0.6898718 0.024097964 0.5145899 0.47769946 0.3280352 0.3359277 -0.22483197 0.059906535 0.5068919 0.48652625 0.3399803 0.30939627 0.4510653 0.034093462 0.28378066 0.540251 0.5474415 0.4178643 0.33945638 0.2522307 0.13085048 0.3567702 0.43975747 0.5951782 0.6040035 0.3845113 0.25720948 0.22726198 0.16443121 0.09240118 0.048809774 0.4747861 0.5487709 0.5940882 0.5713287 0.3387869 0.5366668 0.5365387 0.051355377 -0.12787569 0.20369208 0.30047974 0.513984 0.5402661 0.53463703 0.51666266 0.5105068 0.5192668 0.55395854 0.5008632 0.6064208 0.61187184 0.36121285 0.13881004 0.19305758 0.47603106 0.5046963 0.5064411 0.48600033 0.59311366 0.5667987 0.4121986 0.41869658 0.5583892 0.5730113 0.5114273 0.4884416 0.3615867 0.32961434 0.46253866 0.48710382 0.48577544 0.37676722 0.33935657 0.35692683 0.3392536 0.32681602 0.37652206 0.33782715 0.30719098 0.2835058 0.37135255 0.40125215 0.6090933 0.6033013 0.5932498 0.5962101 0.57954466 0.5139818 0.038513266 0.28754485 0.16021818 0.015213303 0.20756263 0.2972274 0.62163484 -0.035203308 0.53968996 -0.054801464 0.45381778 0.20347108 0.043466642 0.33414564 0.79584026 0.8441043 0.9084058 0.5201457 0.38226622 -0.17204724 0.74703676 0.7663086 0.90844995 0.63703233 -0.106504455 0.65098435 0.6590673 0.6076905 0.6737442 -0.11188408 0.58635235 0.21770076 0.5240907 0.33941194 0.54921573 0.28629854 -0.13619672 0.5703673 0.16653809 0.14874916 0.10567814 0.26533508 0.37901103 0.5801327 0.24591008 0.47741863 0.48243725 0.58752817 0.18094173 -0.031909153 0.5575975 0.55683 0.03916333 0.36324728 0.37306875 -0.05988533 0.3498403 0.54246014 0.5431597 0.5169779 0.4861809 0.37525332 0.07813838 0.12924136 0.14612582 0.3263813 0.24283074 -0.22998151 0.47587916 0.47774145 0.41478848 0.44653577 0.18380846 0.23176995 -0.16047138 0.34690636 0.42145056 0.04046912 0.37663227 0.15127939 0.19142613 0.21191382 0.177955 -0.10468625 -0.080752626 0.03564819 0.26957953 0.2697901 0.1405425 0.4320372 0.09268114 0.0026842393 0.0049286857 0.24113305 0.26104823 0.22139463 0.15652005 0.076453835 0.028470252 0.21817046 0.15140773 0.47039002 0.48284006 0.39737743 0.2489942 0.10865085 0.30823374 0.52480483 0.5140116 0.41993096 0.3384552 0.23785092 0.20076188 0.18579638 0.27610916 0.33330876 0.31705993 0.26755124 0.5159091 0.43019134 0.3332861 0.28113776 0.24434966 0.23071624 0.31310335 0.36040747 0.3574655 0.3026907 0.470599 0.43473402 0.4045763 0.3445441 0.33400568 0.34118244 0.34616953 0.30955088 0.3263626 0.273535 0.47113255 0.46357137 0.493894 0.36743158 0.43770415 0.42134267 0.41745043 0.32566237 0.23346314 0.26427746 0.54694116 0.56837434 0.5331769 0.43841833 0.46225196 0.4430039 0.35043588 0.5226874 0.54667586 0.61530095 0.6376867 0.60811746 0.58291423 0.50674844 0.45889747 0.4034114 0.37416917 0.08152192 0.002259694 0.002046883 -0.011155254 -0.027088635 0.27893215 -0.012025185 -0.043670624 0.065176204 -0.21839352 0.19326808 0.15198636 0.09519229 0.19068612 0.81606567 0.86299 0.88527894 0.20432395 0.1645011 0.7564634 0.79114974 0.93162894 0.027757563 0.09109797 0.70532656 0.56706214 0.6244488 0.105185166 0.1871134 -0.18235338 0.6136247 0.034957252 -0.090565555 0.09130216 0.6282878 -0.009302738 0.050232623 0.35687992 0.62946296 0.07257805 0.01104553 0.018486436 0.0698011 0.49354827 0.62131846 -0.30948055 -0.07338554 0.0014352426 0.045817353 0.48988843 -0.30972537 -0.105580814 0.50204265 0.486291 0.44672275 0.43037987 0.2280349 0.31483316 0.15242288 0.020757733 0.1849117 -0.04649878 0.21437736 0.00395903 -0.25644666 -0.038611997 -0.010737294 0.2001252 0.19725001 0.20891419 -0.13912058 -0.03176721 -0.07092559 0.007878886 0.04169801 0.048132926 0.0892535 0.13504264 0.15590551 0.18448532 0.4670252 0.4579342 -0.0027375193 0.14397001 0.19673663 0.11608129 -0.062554784 0.031982567 0.051477868 0.021942228 0.048310705 0.4970166 0.51103795 0.17960808 -0.07826723 -0.07264002 0.0048111677 0.0457609 0.5003191 -0.004038904 0.24544865 0.32446527 0.3633261 0.350511 0.46387035 0.440601 0.37763262 0.43922102 0.427535 0.43391877 0.42232645 0.36624584 0.33549055 0.29910952 0.14546788 0.30798262 0.46027133 0.5281653 0.4816625 0.30086848 0.4037898 0.44904363 0.33366603 0.1751104 0.10157228 0.089505784 0.36888862 0.45670867 0.50488985 0.5277835 0.13223991 0.10711705 0.14190671 0.23014311 0.41380852 0.42264748 0.38660848 0.6353909 0.6428236 0.64171714 0.5876405 0.611024 0.59700394 0.4733221 0.25368685 0.2478139 0.25518042 0.12217296 -0.21612042 0.6863396 -0.30032462 -0.23253106 -0.23672445 0.61170506 0.6665872 -0.053305104 -0.3984662 -0.037413567 0.61053777 0.65691525 0.65436864 -0.16303559 -0.16276431 -0.003860645 0.07549025 0.16038892 0.22475286 0.23511353 0.793545 0.7961568 0.26226002 0.2242442 0.21222492 0.26096475 0.7139811 0.6321341 0.64419806 0.65844333 0.23333013 0.2557734 0.59524006 -0.13075295 -0.16796862 0.003277311 0.15472573 0.48509678 0.028118351 -0.65388113 -0.14153382 0.59905326 -0.08106473 -0.09725103 -0.16034174 -0.48903888 -0.059433483 0.5673657 -0.16360082 -0.068543926 -0.04805812 0.1800873 0.579182 -0.1785913 0.004802853 0.3661708 0.5074934 0.3593576 0.45755947 0.33226734 0.29497695 0.3168798 0.27295798 0.3165058 0.02346709 0.20371647 0.09580855 0.19060951 0.1738891 0.415501 -0.24168517 0.17098081 0.4719565 -0.24633506 0.09290261 0.1286452 0.47911754 0.047571555 0.4838183 0.47340655 0.10364439 0.15373519 0.41047803 0.35349366 0.32675558 0.2558596 0.38199478 0.24209923 0.23999804 0.29059967 0.3092723 0.26062107 0.12309658 0.19364116 0.44649702 0.3695421 0.34485093 0.18882972 0.108459935 0.11974994 0.18981805 0.22932962 0.2710973 0.2883314 0.31957307 0.36184406 0.25308096 0.2851715 0.27644074 0.24959326 0.2597694 0.2754962 0.48964447 0.4960913 0.47846365 0.5488959 0.6087787 0.5235145 0.45044345 0.4303727 0.48251384 0.590567 0.6874392 0.64005005 0.5169332 0.44134337 0.6348932 0.69755405 0.6760545 0.59357285 0.6437578 0.66386974 0.64528644 0.65641403 0.67369664 0.6901827 0.6795396 0.5484204 0.6013522 0.584735 0.63155174 0.5159574 0.3097914 0.60849404 0.6465951 0.64022446 0.36111513 0.27468514 0.4562098 0.5495297 0.67544013 0.6486576 0.62415004 0.2725262 -0.28344807 0.05385378 0.64843893 0.13379177 0.08255498 -0.30505425 -0.34011722 -0.042872503 0.043735355 0.44493982 0.52985895 0.59426767 0.563464 -0.072872005 0.05385451 0.07610658 0.5713115 0.48735237 -0.20503947 0.19574559 -0.059793197 0.1778453 0.19654873 0.24134266 0.18724377 0.2606965 0.30067524 0.32431054 0.25449377 0.29142556 0.4935977 0.34469563 0.33132002 0.31770453 0.3374554 0.45702875 0.37312216 0.44121802 0.15769729 0.018930227 0.1456028 0.2067946 0.3527645 0.17883556 0.06276631 0.034004256 0.061284028 -0.06099142 0.37185302 0.46822485 -0.098624706 -0.23358354 -0.2343525 -0.18721974 -0.06804553 0.4934734 -0.09885196 -0.0010248646 0.3838419 0.4627331 0.061180666 -0.13171497 0.1519446 -0.08537583 0.17333944 -0.061908785 0.071923405 -0.09797904 -0.011337459 0.105563134 0.06927303 0.12668173 0.1087811 0.32629466 0.34651577 -0.17565 0.44646 0.16534156 0.29888368 0.35396898 0.44156075 0.03757819 0.37154597 0.3653978 0.31780794 0.075615555 0.27953786 0.35273838 0.3580578 0.31914762 0.22987628 0.21387267 0.2699721 0.33505327 0.2125201 0.21019346 0.23451948 0.15882269 0.19287112 0.18969743 0.25644433 0.2464705 0.17915401 0.15538704 0.28191325 0.31631166 0.21731651 0.24589297 0.27735782 0.25633097 0.19935764 0.18162934 0.1696445 0.1299741 0.19035089 0.18671882 0.34050265 0.39614564 0.38808945 0.33088067 0.252546 0.2875776 0.29873514 0.2740203 0.21558782 0.17248555 0.122985296 0.2962888 0.37998092 0.4240413 0.39783776 0.37731475 0.35827005 0.3395904 0.3707113 0.40330136 0.40012264 0.40042377 0.35178924 0.40965697 0.5231826 0.5726248 0.45964038 0.37470844 0.60862154 0.6449418 0.62031996 0.535497 0.61502194 0.5879688 0.502311 0.53265333 0.58135 0.7090032 0.56748694 0.6608441 0.7918904 0.8292491 0.8208163 0.5729541 0.6590354 0.77975774 0.823346 0.8242854 0.6611105 0.7463949 0.7881202 0.6594975 0.6888027 0.7182236 0.6759376 0.592409 0.6233431 0.5849262 0.3542424 0.58672136 0.5936309 0.5199431 0.39455777 0.38431084 0.361941 0.34015408 0.2972626 0.50681 0.6179089 0.592069 0.4364133 0.29036048 0.32435364 0.28799444 0.55903083 0.314548 -0.1390778 0.07315334 0.04083346 0.257077 0.26463163 0.49243122 0.25559098 -0.18174663 0.480147 0.42845058 0.07090406 -0.2576949 0.56333935 0.43455023 0.38135475 0.5092355 0.3971419 0.28108555 0.16640943 0.2822013 0.2847948 0.2770577 0.33225754 0.20431069 0.2949144 0.37032157 0.39469838 0.40159386 0.44149515 -0.04292351 0.013656795 -0.15746996 -0.4796824 0.46889248 0.22618815 0.089742094 0.38951012 0.44488022 0.14916107 0.022958338 0.09148799 -0.031721175 0.50147194 0.57234997 0.618649 0.49209833 0.57610554 0.60844487 -0.19294822 0.16890419 0.3918912 0.4767973 0.572992 -0.18553768 -0.18065 0.31702715 -0.19138002 -0.12579897 -0.14255568 0.07882273 -0.041890673 -0.08959964 0.24800813 0.12480079 0.35800275 0.27036834 0.38518298 0.2508678 0.23479778 -0.0067463294 0.17712124 -0.040753685 0.15149318 0.16791314 -0.00039725006 0.14794756 0.16761331 0.15620397 0.18644255 0.14263222 0.12846725 0.11253306 0.09098211 0.093939364 0.2320236 0.24182232 0.17832626 0.1570149 0.20711827 0.18017516 0.18292005 0.22032103 0.19160089 0.14636214 0.22247289 0.2524343 0.25997847 0.2482313 0.2320928 0.1497416 0.13511002 0.22968909 0.21526729 0.17300536 -0.020096842 0.22631495 0.2610197 0.31435263 0.24463385 0.16190703 0.1873159 0.27769828 0.31054097 0.36339116 0.3027895 0.42986444 0.37777543 0.36262208 0.26582482 0.10287538 0.09962264 0.5356605 0.3547856 0.22264767 0.1228718 0.13619396 0.12779255 0.56484705 0.5228221 0.40706712 0.32231665 0.1441246 0.18157876 0.19414821 0.18186593 0.25347394 0.4393807 0.3195935 0.47309917 0.44794863 0.6468384 0.6926141 0.44610256 0.5303988 0.77140415 0.5212312 0.8095416 0.5103855 0.6122098 0.6995613 0.7760713 0.7845719 0.6892497 0.65520924 0.672318 0.68427527 0.62413645 0.6281263 0.56371826 0.48289007 0.35671467 0.34544185 0.3362008 0.55468875 0.52429515 0.5378612 0.37929362 0.27251434 0.32257307 0.54184633 0.5203996 0.46894553 0.48308146 0.13559672 0.21734369 0.531022 0.47951847 0.4209866 0.023635942 0.076779574 0.4777565 0.4220678 -0.09581821 0.40138188 0.35619527 0.35781655 0.27070978 0.43367213 0.357455 0.0023425967 0.22226277 0.2844882 0.04467188 0.26031506 0.32810003 0.14678377 0.40829343 -0.30697978 0.46052504 0.2278992 0.071272746 0.05206065 0.4786314 0.43448228 0.26805326 0.13135885 0.21106747 0.5664916 0.62251735 0.57689995 0.637112 0.65588695 0.37246415 0.63809764 0.6598792 0.13573457 0.53262186 0.6186297 0.6494401 0.29610738 -0.18454574 0.19404718 0.4070509 0.24718344 -0.2880354 -0.28800094 -0.21297234 -0.073455386 -0.2322363 -0.25224578 -0.18713409 -0.13777047 -0.30223498 0.026943862 -0.019478362 0.19296262 0.044178426 0.15846246 0.11953339 0.0065350216 0.030984748 -0.070555456 -0.040369436 0.65423703 0.66455185 0.65523624 0.065633826 0.072547115 0.068326786 0.007128117 0.6175697 0.6339079 0.6309922 0.62854874 0.13228764 0.45532835 0.5460183 0.56866395 0.48657867 -0.09461753 -0.048080634 -0.08336345 0.12405899 -0.020154838 -0.035457283 0.11872135 0.19661349 0.23981822 0.2416921 0.13193944 0.050898835 0.036334146 -0.023283746 0.2332888 0.21127987 0.24281143 0.26710278 0.23112328 0.23412709 0.12406127 0.07830398 0.21406512 0.012005655 0.07549231 0.19949558 0.24630132 0.28889433 0.27038178 0.09702192 0.16346253 0.18322581 0.26981825 0.2497721 0.18247056 0.091551065 0.2541284 0.24399057 0.1723164 0.3630401 0.39688626 0.32240763 0.271703 0.17296498 0.15451321 0.19329281 0.15551901 0.24362028 0.4559394 0.49528947 0.35181606 0.42103755 0.668257 0.3851136 0.43450242 0.80937606 0.43733495 0.47148383 0.7859036 0.80398345 0.64362276 0.7128612 0.76587063 0.79698414 0.65009797 0.6470416 0.61637557 0.6198385 0.60136163 0.2821708 0.3134513 0.33453262 0.31036487 0.2613161 0.49278975 0.50378263 0.5337144 0.5698206 0.48370636 0.36982805 0.27929157 0.27404958 0.48479527 0.46433386 0.47649178 0.30038947 0.24345793 0.26888376 0.44259086 0.4283998 0.04945109 0.20165896 0.419111 0.38978344 -0.028032012 0.09419924 0.14436078 0.390503 0.17555101 -0.048936386 0.33742112 0.3687956 -0.15531135 0.22313409 0.3019023 -0.118982755 0.068377465 0.18409449 0.07245005 0.18789494 0.30512494 0.08822312 0.058699697 0.3898946 -0.24844912 0.44787377 0.2792733 0.25130525 0.14629978 -0.08926049 0.47939998 0.28816718 0.45965147 0.32888877 0.28169918 0.37863225 0.4210776 0.34423262 0.61065865 0.38575476 0.64828354 0.66303056 0.41920415 0.41033354 0.6793318 0.41625366 0.39032173 0.66760457 0.38398919 0.54006386 0.42347038 0.33429033 0.11536784 -0.32051486 -0.1164292 0.18126574 0.49591863 0.40854728 0.31966066 0.030414566 -0.34028342 -0.33893985 -0.30076104 -0.18795952 -0.095386334 0.5099804 0.48011088 0.4377575 -0.17789032 -0.09231226 0.055397846 0.101069495 0.03499708 0.06943865 0.025858447 -0.077974856 -0.028527454 0.07663247 -0.11293722 -0.050054748 -0.04482474 0.6431486 0.66203713 0.6650654 0.08454602 -0.012488995 -0.011313396 -0.041419838 0.5740098 0.6431962 0.66993636 0.65903246 0.12849337 0.18811269 -0.062299434 -0.09469357 0.4102007 0.62401855 0.5878558 0.2634678 0.28986728 0.23660688 -0.07939786 0.010392308 0.39061967 0.53882265 0.47534022 0.36778402 0.37675524 -0.073862985 0.32096416 0.32327735 0.14565572 0.40304485 0.40479395 0.38805437 0.25899166 -0.036774613 0.022150148 0.06817433 -0.040355556 -0.11390762 0.27198583 0.03157132 0.028590865 0.10768258 0.19303872 0.28788358 0.34639382 0.40799463 0.40559268 0.32209668 0.12986973 0.2238029 0.24182285 0.18055007 0.11365393 0.14705624 0.14949381 0.24940538 0.28983015 0.11926677 0.21933728 0.3727085 0.38257298 0.3002068 0.28665337 0.40607792 0.4206227 0.28301033 0.3036537 0.30305827 0.28819 0.22157648 0.32916635 0.35747254 0.35859495 0.32435244 0.1680294 0.036054976 0.30080584 0.30790904 0.13004395 0.16064368 0.15083629 0.200973 0.20885119 0.10270162 0.1905508 0.31607836 0.32814702 0.59232795 0.35203832 0.3953892 0.8579081 0.45634478 0.8266393 0.63594925 0.7026106 0.7846175 0.80709255 0.73059 0.74658227 0.34338164 0.36234233 0.33491534 0.26076746 0.20625274 0.5925148 0.30528635 0.30844563 0.25833368 0.15123375 0.449243 0.57716465 0.57278425 0.51941633 0.42609224 0.26509404 0.3625488 0.48821688 0.32204565 0.24613285 0.39919525 0.43403125 0.22267945 0.13959752 0.17747542 0.1859832 0.39113474 0.38508812 0.058338672 0.3807512 0.3828709 0.10411454 0.35364842 -0.07323601 0.13039857 0.14606413 0.24222454 -0.11888682 -0.0013566688 0.03208627 -0.098269984 0.108204566 0.20057558 -0.009283166 0.20421907 0.13836251 0.23653455 0.2873276 0.2757885 0.15950623 -0.013146181 0.46347547 0.35265908 0.3086365 0.4793914 0.3569784 0.34319663 0.4345398 0.355667 0.36426857 0.5528653 0.599163 0.4001814 0.63123846 0.6567015 0.41447902 0.6932491 0.41950724 0.6064927 0.67340153 0.43697366 0.406046 0.53592 0.43860775 0.038994655 0.4880449 0.11943302 0.24364993 0.5321439 0.52647406 -0.406851 0.2004247 0.24570243 0.50425214 0.5020248 0.4756167 0.15365057 -0.13683212 -0.13590732 0.08608133 -0.013130337 -0.069747455 -0.03226302 0.012562491 -0.016919993 -0.03423895 0.50260603 0.61481255 0.6327003 0.63375235 0.11499651 -0.043759264 -0.082730964 -0.010435563 0.49561593 0.63860124 0.59435666 0.17937142 0.16336082 -0.10125409 0.36629558 0.25292253 0.2559737 0.33782494 0.11436333 0.2892162 0.33465326 0.38516694 0.36373442 0.3728733 0.40060705 0.41341093 -0.015441889 0.22791441 0.0069070235 -0.12922306 0.38718897 0.3838068 0.4357761 0.44883287 0.44670856 0.3737563 0.18487313