# vtk DataFile Version 2.0
Really cool data
ASCII
DATASET POLYDATA
POINTS 6062 float
20.4727 99.5934 4.5899367
20.47651 99.631256 4.9252567
20.424942 99.91903 4.778619
21.16572 98.32607 4.0251617
21.235386 98.19084 4.3929377
20.948307 98.7944 3.728865
20.799109 98.76612 4.5032334
20.992722 98.80425 5.223013
21.257305 99.01117 5.6949606
21.049696 99.5822 3.2265449
20.688885 99.480095 3.7295525
20.5226 99.38091 4.498204
20.66076 99.56235 5.2047863
21.015257 99.69022 5.704959
21.15871 100.14966 3.1066258
20.89429 100.356445 3.7103412
20.605413 100.27592 4.540868
20.864779 100.4152 5.1597505
21.000036 100.124535 5.6802855
21.146498 100.76397 3.8440063
21.043959 100.848305 4.454178
21.186352 100.85623 5.052922
21.90598 98.123825 3.2264366
21.838913 97.90368 3.8425918
21.657963 97.891365 4.307899
21.617678 98.08607 5.0175247
21.631922 98.73329 2.9979935
21.455017 98.36217 3.4288774
21.42243 98.62338 5.563353
21.996613 98.76988 6.1569004
21.603771 99.63843 2.7745795
21.3162 99.22744 5.846843
22.087599 99.32091 6.6304574
21.613474 100.39481 2.8821187
21.307255 100.6131 5.521394
21.724806 100.25854 6.1549873
22.052975 101.15116 3.2182062
21.665577 101.05243 3.6576378
21.871569 101.32708 4.545337
21.462257 100.93655 5.4349465
22.155434 100.82268 6.3435917
23.462193 77.457184 -25.196012
23.408245 77.42315 -24.49318
23.46912 77.7569 -23.51774
23.365473 78.50678 -26.371122
23.26126 78.96547 -25.475939
23.27559 78.30824 -24.554085
23.419949 78.62294 -23.475239
23.345356 79.37976 -26.384882
23.279696 79.70653 -25.547466
23.23874 79.73034 -24.754429
23.404099 79.741806 -23.98191
23.43371 80.57871 -25.602068
23.4161 80.29231 -24.48546
22.700748 97.45323 4.4448757
22.74616 97.669014 3.7453365
22.49308 97.572334 4.4123287
22.602999 97.743935 5.3428354
22.687437 98.44038 2.9328623
22.444805 98.592834 6.410789
22.767609 98.869026 6.8424077
22.694248 99.367805 2.5741644
22.624037 99.56192 6.9114413
22.126402 100.32404 2.5311143
23.206108 100.540565 7.2831755
22.255396 100.86246 2.8982048
22.244656 101.431274 4.0049334
22.474241 101.53838 5.7359953
23.300192 101.11271 7.153753
22.992468 101.559845 4.1114216
22.84425 101.75786 4.7995677
23.187233 101.75834 6.4210024
24.289457 76.210464 -25.232111
24.288048 76.07291 -24.374922
24.07952 76.160805 -23.141163
24.166357 76.13157 -22.945412
24.190489 77.18502 -26.927155
24.159029 76.711365 -26.176819
23.847195 76.783195 -25.3052
23.696604 76.81651 -24.67955
23.788715 76.859924 -22.604416
24.125652 76.75752 -21.59525
24.019547 77.76645 -27.242151
23.640524 77.80104 -26.703873
23.49616 77.64696 -25.726482
23.545267 77.33958 -23.346245
23.548676 77.822914 -22.2789
23.753403 77.57347 -21.721512
24.194246 77.410515 -21.03872
24.194893 78.566734 -27.634993
23.821554 78.55917 -27.223852
23.508371 78.56206 -26.63325
23.514027 78.17249 -22.625795
23.735643 78.16247 -21.839088
24.182589 78.0109 -20.944168
23.787683 79.58429 -27.254185
23.534027 79.6658 -26.802862
23.686436 79.28738 -22.569529
24.086805 79.025826 -21.710377
24.243258 80.36008 -27.631449
23.973974 80.3639 -27.230162
23.588243 80.523 -26.485174
23.555908 80.58773 -25.78001
23.616802 80.33439 -23.47141
23.716152 79.9859 -23.163633
24.052134 80.81184 -27.04621
24.004711 81.209625 -26.293907
23.783073 81.20918 -25.549297
23.737751 81.237015 -24.581001
23.9303 81.279434 -24.039185
24.102415 80.90102 -23.072521
24.18419 81.76078 -25.334032
24.130175 81.81615 -24.625357
24.410427 96.727005 -5.977997
24.312656 96.8025 -5.315025
24.34637 96.63252 -4.8084173
24.250357 96.888405 -4.0618467
23.950743 97.05828 3.9929566
24.164146 96.84469 4.3987136
23.902756 97.01221 5.310721
24.09915 97.42786 -5.2591863
24.192003 97.31528 -4.4685264
24.095661 97.738 -3.6800687
24.256962 97.381134 -3.0893636
24.30077 98.07904 -2.0593898
23.11089 97.83519 3.5059898
23.476025 97.93821 6.4179955
24.181274 98.60889 -6.236752
24.024593 98.76241 -5.5187864
23.904696 98.702995 -4.4426994
23.810884 98.37759 -3.5595949
23.855171 98.60235 -2.714576
24.103779 98.574684 -2.0596607
23.297918 98.83035 6.9899426
24.402695 99.35159 -6.9467115
24.334475 99.445366 -6.3674927
24.054024 99.36332 -5.4767585
23.932957 99.32632 -4.3572145
23.83004 99.400505 -3.4230366
24.068893 99.37267 -1.9118302
23.65437 99.42018 2.4321296
24.03876 99.533676 7.399649
24.285517 100.05046 -5.2503753
24.258589 100.24 -4.4979696
24.068438 100.206894 -3.4342566
24.036669 100.092285 -2.4433658
24.303339 100.17343 -1.9292624
23.253326 100.180435 7.257668
23.896366 100.92879 7.6833487
24.108099 102.26172 4.2190237
24.129475 102.33754 5.42801
23.687866 101.77219 7.0891356
24.145033 101.913216 7.8294234
24.336329 105.004036 8.546324
24.37238 105.15816 7.1810155
24.205208 105.54998 7.843395
24.187925 105.651375 8.324851
24.374847 105.74919 9.371321
24.382654 106.44474 7.607029
24.193012 106.5462 8.399875
24.27461 106.495384 9.178508
24.386148 107.305504 7.9334216
24.354805 107.373604 8.285897
24.37628 107.25321 9.012406
25.22297 75.40707 -23.45284
24.943733 76.243866 -26.128267
24.518997 76.09148 -25.518396
24.640858 75.79814 -24.46661
24.742596 75.631966 -23.188828
24.663738 75.680084 -22.58386
24.570562 77.0904 -27.168318
24.645842 76.680084 -20.826067
25.373207 76.62742 -19.737505
24.637768 77.666115 -27.653711
24.575788 77.42587 -27.527435
24.76298 77.44475 -20.459288
24.878803 77.803535 -20.17416
24.507065 78.34993 -27.772768
24.459093 78.02804 -20.784115
24.50567 79.63055 -27.754482
24.467014 79.26195 -21.48829
24.916037 79.29374 -20.85516
25.328867 79.20933 -20.160002
24.585056 80.31236 -27.688038
24.371408 80.635315 -27.42816
24.439466 80.40398 -22.169907
25.10444 80.40357 -20.183344
24.954788 80.71356 -19.70597
25.058964 80.592575 -18.828028
25.191631 80.92847 -17.365686
25.364853 80.97531 -16.57174
24.56166 80.9849 -27.230305
24.476273 81.41948 -26.456179
24.434395 81.056816 -22.697474
25.165676 81.3544 -20.156004
24.94765 81.47285 -19.443056
24.989267 81.66883 -18.55918
24.978403 81.446205 -17.455158
25.152903 81.580475 -16.714254
24.714693 81.77957 -26.014818
24.693775 82.076866 -25.32901
24.5778 82.06797 -24.598488
24.952738 81.97273 -23.822275
25.242722 82.09262 -19.31509
25.22561 82.3018 -18.523666
25.151457 82.35871 -17.35478
25.18904 82.164955 -16.812305
25.435001 90.48392 -2.4524074
25.372826 90.835045 -1.9583874
25.369865 92.04978 -10.009503
25.268198 91.948074 -9.30884
25.372057 91.93314 -8.842619
25.464558 91.51093 -3.0617697
25.369186 91.52247 -2.4119833
25.454077 91.46934 -1.779607
25.307362 92.430664 -10.0351095
25.186672 92.45467 -9.480804
25.230923 92.5837 -8.696615
25.379847 92.35845 -2.632873
25.399569 92.328 -2.0593395
25.41833 93.124916 -10.204821
25.271315 93.38901 -9.465348
25.220774 93.28785 -8.733707
24.750175 96.13825 -5.2936645
24.784075 96.173874 -4.5973725
24.743681 96.64254 -6.2170787
24.457531 96.809906 -5.8236065
24.436974 96.608925 -4.4948316
24.63164 96.57361 -3.8910167
24.803154 96.835556 -2.950947
24.638664 96.629105 4.91105
24.640837 96.73642 5.4797683
24.858137 96.949974 5.9950223
25.057543 98.12724 -7.677579
24.6387 97.89161 -7.0438824
24.511053 97.58133 -6.593903
24.685167 97.63387 -1.8550596
25.185562 97.801155 -0.37469393
25.277288 97.76144 -0.10252321
24.533438 98.06197 3.0123672
24.630157 97.84075 6.810676
24.987106 98.54955 -7.7780385
24.703896 98.571594 -7.4088855
24.996172 98.53569 0.13185365
24.166761 98.37884 6.9873667
25.120392 99.481255 -7.724245
24.697983 99.40278 -7.319146
24.820288 99.01706 -0.5053408
24.929855 99.21197 2.394174
24.419144 99.74356 2.5111885
25.170408 99.84126 -7.682374
24.970322 100.122284 -7.169736
24.84854 100.313034 -6.656769
24.423622 100.62806 -2.2065172
25.162218 100.13787 -0.9274558
24.396912 100.34492 2.373729
24.64124 100.442566 8.336624
25.25077 100.72195 8.943432
25.068703 100.62979 -6.2604766
24.860685 100.827 -5.3125033
24.797447 100.93607 -4.5379434
24.533686 100.77362 -3.2628636
24.707396 100.75413 -2.4739435
25.123602 102.8011 -0.94916654
25.034727 102.50957 -0.1588798
25.087576 102.51414 0.7946467
24.99584 102.552605 2.6699865
24.414494 101.92176 3.6759465
24.611917 102.61792 6.3177476
25.185692 103.35307 -1.050736
24.9477 103.442215 -0.4889124
24.765438 103.655556 0.98351353
24.66849 103.54752 1.7160571
24.824562 103.047 5.1611805
24.518585 102.86222 6.559482
24.837664 103.738365 8.081087
25.204735 103.97334 10.158321
25.19947 104.077576 -0.35418567
25.145397 104.204025 0.47027928
24.929008 104.0886 1.3819302
24.850948 103.90575 2.0803437
25.212545 103.76895 2.8264778
24.813847 104.52664 6.6987824
25.054064 104.795074 10.320795
24.613388 105.50517 6.922589
24.896358 105.56352 10.15685
24.745098 106.36572 7.10215
24.558455 106.455894 9.701928
25.063036 106.52342 10.234392
24.865303 107.19715 7.29668
24.66089 107.49389 7.6723037
24.496397 107.652756 8.4379225
24.64086 107.469604 9.286994
25.096916 107.35605 9.994407
24.75487 107.84425 7.9905815
24.838373 107.9733 8.463784
24.910059 107.866684 9.204561
26.029222 75.20377 -24.698772
25.376757 75.19814 -23.399094
25.81089 75.03491 -22.860924
26.021349 75.27336 -21.346073
25.943884 75.24413 -21.02617
25.994122 75.50401 -25.58124
25.244574 75.50732 -24.527401
25.431993 75.57242 -21.630009
25.574312 75.77615 -20.585873
25.928038 75.684746 -19.660185
26.113676 75.96331 -19.119602
25.65104 77.20432 -27.439434
25.54082 76.67895 -19.482449
25.835716 76.62648 -19.154922
25.305445 77.83228 -27.793245
25.665663 77.39687 -19.212706
25.379807 78.72799 -27.878786
25.756056 79.00632 -19.155163
25.48119 79.41878 -27.805744
25.66637 79.176834 -19.588589
25.69903 80.114044 -17.862858
25.326262 80.2033 -27.800497
25.602522 80.671524 -16.696491
25.810349 80.89254 -16.180714
25.257301 81.047356 -27.315327
25.785944 81.33009 -22.397144
25.450047 81.242676 -16.424885
25.735344 81.47992 -16.064522
25.624952 81.76703 -26.352705
25.483265 82.117775 -23.9508
25.630117 81.720505 -20.813524
25.785938 82.069016 -20.67747
25.41287 82.29589 -19.286114
25.483383 82.66468 -18.442114
25.606306 82.52693 -16.502953
25.872927 82.26724 -16.078268
26.014696 83.19116 -18.588005
25.802725 83.04716 -17.366833
[...]
POINT_DATA 6062
SCALARS features_00 float 1
LOOKUP_TABLE default
0.83003384 0.79785115 0.8047695 0.79036355 0.76783687 0.85692656 0.82066303 0.7603788 0.7013211 0.89946365 0.89584774 0.83905244 0.77046573 0.71231186 0.85638535 0.85046774 0.8097072 0.7522416 0.7119256 0.79514027 0.76748997 0.723487 0.69466275 0.6818387 0.70122963 0.71457756 0.81459844 0.77498645 0.7013943 0.58613276 0.8495648 0.6819501 0.5302413 0.8119004 0.6930603 0.60575765 0.6831323 0.7180338 0.63703525 0.6752372 0.52804536 0.4510429 0.40935755 0.39105257 0.5520113 0.4908226 0.41200787 0.37182435 0.5683525 0.51767117 0.46110702 0.4098224 0.5360531 0.46637097 0.5342891 0.558862 0.571634 0.56456655 0.6204441 0.5082561 0.4410783 0.65397465 0.4534548 0.7555968 0.37421995 0.696086 0.5749588 0.51159745 0.3557319 0.38566756 0.3920244 0.35638762 0.37838238 0.33701557 0.3662963 0.3675866 0.5339742 0.4810028 0.43591884 0.40463024 0.43311006 0.41067117 0.5692705 0.5567399 0.49455473 0.40528145 0.38512883 0.37022638 0.31076738 0.5935527 0.5983763 0.572639 0.37396365 0.34453595 0.27255154 0.6026453 0.5894252 0.33095273 0.27205226 0.5635699 0.577717 0.56862324 0.54518485 0.40138716 0.36830068 0.5585475 0.54724467 0.5359072 0.49620712 0.46477914 0.38998652 0.52397525 0.49975336 0.4304602 0.38263798 0.33956274 0.3153267 0.38377053 0.36655113 0.41364717 0.40853804 0.3554409 0.3586303 0.31684685 0.33625418 0.50844264 0.40111536 0.56442654 0.5016465 0.44986665 0.4175887 0.44654995 0.4090624 0.3848714 0.62821984 0.59541714 0.5307449 0.49731767 0.5188129 0.476349 0.39201862 0.30610695 0.5383785 0.52215725 0.5258835 0.50662893 0.4633911 0.38050306 0.28779435 0.04422053 0.15209952 0.30454025 0.22978382 0.5649232 0.54303145 0.6073258 0.64043313 0.67828417 0.69435984 0.7293167 0.75785524 0.78934634 0.8108642 0.8313557 0.24486032 0.37121102 0.36698776 0.29592273 0.28000987 0.30485332 0.49559665 0.34244543 0.27206546 0.5202705 0.51486063 0.23619652 0.18600821 0.565341 0.24186936 0.5712897 0.2144523 0.13022354 0.11255127 0.53356016 0.54401 0.2805766 0.23795076 0.3450061 0.40460062 0.6048349 0.63318515 0.51244116 0.5216393 0.34510052 0.3801918 0.43161345 0.5255592 0.6536151 0.6847142 0.5043128 0.49134088 0.47552535 0.3840211 0.4370324 0.5328744 0.6765847 0.7000526 0.5308076 0.48908758 0.6705872 0.6950529 0.70548725 0.48656932 0.47718966 0.44378668 0.6860045 0.71599996 0.7504538 0.4407375 0.42934865 0.6780553 0.6981876 0.72032046 0.3459113 0.30169225 0.46333823 0.42293656 0.31743875 0.27691114 0.24722362 0.30714658 0.3283592 0.28989208 0.6126878 0.60968614 0.56567216 0.2668349 0.12889752 0.087557815 0.29539722 0.23262352 0.63854724 0.64444315 0.13492613 0.28079778 0.63674796 0.6418015 0.2824398 0.20436859 0.25884002 0.61895 0.6018759 0.57695544 0.4697111 0.3062266 0.25142685 0.21877396 0.1296686 0.5221378 0.49564886 0.47359365 0.485089 0.4606715 0.6363878 0.53707606 0.49276236 0.24144538 0.02205155 0.12683707 0.6719682 0.63354266 0.556537 0.4837179 0.0102435555 0.07535073 0.34065807 0.4491545 0.61120343 0.56512684 0.5261065 0.45805395 0.35320354 0.40503624 0.5438035 0.57368803 0.618335 0.67558515 0.74423134 0.684319 0.76569074 0.8065359 0.8547729 0.8706638 0.78875136 0.86022997 0.90228474 0.9139811 0.19845802 0.23501112 0.22627728 0.18245476 0.17987855 0.22307682 0.24413618 0.27492595 0.28834054 0.24210912 0.2282968 0.3095572 0.24784008 0.22489473 0.42824098 0.18327135 0.4488201 0.08829749 0.42138708 0.10018079 0.42912495 0.4225002 0.5835185 0.6271682 0.41929895 0.005479086 0.66369426 0.6789681 0.38261598 0.2895586 0.21947911 0.24416348 0.42579982 0.5206002 0.6903577 0.69388986 0.441994 0.59783036 0.65748054 0.6542597 0.5082498 0.4989828 0.5030514 0.5328882 0.545206 0.51324457 0.43107173 0.40840566 0.58834195 0.6000769 0.5947747 0.4869576 0.5317551 0.54331934 0.47976774 0.41737187 0.34277496 0.5861782 0.6306118 0.64933693 0.6623018 0.6698663 0.3923981 0.49803042 0.4245961 0.2829455 0.62155294 0.64572203 0.65903836 0.69876313 0.40471047 0.41351193 0.4020694 0.32372838 0.29464045 0.64569855 0.6573478 0.66249824 0.6873261 0.6554147 0.25785732 0.34010512 0.36164916 0.33673388 0.19720072 0.28601146 0.31254327 0.6221249 0.5467752 0.6172266 0.5661973 0.5401543 -0.010202795 0.08342504 -0.018954191 0.120335296 0.33080244 0.416856 0.43840757 0.34310794 0.20539308 0.20057791 -0.09900836 -0.026743567 0.08136074 0.028638296 0.49440062 0.13759196 -0.09079333 -0.24498306 0.20077488 0.21154338 0.5204238 0.52283335 0.069566816 0.20268963 0.5911356 -0.050120987 0.13178031 0.22413692 0.62211704 0.2701539 0.5859961 0.5508537 0.21536192 0.17818165 0.27062356 0.50190234 0.47072732 0.371456 0.35001478 0.30867726 0.2415031 0.07171583 0.14355087 0.20773043 0.27488625 0.678348 0.3626975 0.4855844 0.65132964 0.60575503 0.56447244 0.2863055 0.15453629 0.37791732 0.5455109 0.60104483 0.5403458 0.49340332 0.44647753 0.6005366 0.57728016 0.68134767 0.65468836 0.5937178 0.7865486 0.7015253 0.6378013 0.89613044 0.9410902 0.9080719 0.7983662 0.7885238 0.8199588 0.69365233 0.6848418 0.6659559 0.5361845 0.5834168 0.081424385 0.172384 0.1826171 0.16040045 0.17114481 0.17050901 0.060938053 0.1708173 0.1959736 0.17785007 0.19848593 0.19880053 0.16057368 0.19196218 0.14995371 0.16884327 0.14359185 0.10078028 0.09718437 0.09683641 0.36638212 0.49988288 0.52982354 0.59196645 0.10560213 0.6599879 0.6449677 0.058814608 0.08684225 -0.28357488 0.051141642 0.17142195 0.6678086 0.0033809096 0.1534581 0.0977197 0.19059607 0.26136464 0.48785636 0.52949095 0.6358254 0.18136503 0.19070108 0.21202315 0.30114883 0.33008146 0.40587378 0.23102689 0.26424417 0.327326 0.32318157 0.3364531 0.3300215 0.43088245 0.4503502 0.45074132 0.47084174 0.4540315 0.4071047 0.43065944 0.4600345 0.4496588 0.39662483 0.38638723 0.51397836 0.47382843 0.5499817 0.4590357 0.30822176 0.43967217 0.31109354 0.2927597 0.22432399 0.53554165 0.58014494 0.50219655 0.48313063 0.20067027 0.1490257 0.21942458 0.20581248 0.57660234 0.21455836 0.16249985 0.24182831 0.28866255 0.29233825 0.6089976 0.39740205 0.29662275 0.5960269 0.5431821 0.44743958 -0.16371962 0.24060248 0.3964108 0.39767212 0.21111138 0.22235624 -0.19318557 0.102296606 -0.06770669 0.48347807 0.03150192 0.47110865 0.026412912 0.06858152 0.3657112 0.38878664 0.48947638 0.32326153 0.43413755 0.46380192 0.51236653 0.38057083 0.39646906 0.495802 0.45306325 0.33248723 0.32993895 0.24308224 0.20826776 0.14542551 0.22923528 0.36930233 0.27970007 0.5659818 0.4456429 0.61719215 0.63884485 0.34324843 0.21903628 0.5094278 0.6009127 0.5495514 0.448747 0.41506743 0.31760663 0.3509318 0.55721885 0.56030715 0.5382848 0.8319174 0.63362455 0.6241567 0.89505225 0.9027434 0.79461527 0.7092062 0.906219 0.92104423 0.9673649 0.9656405 0.85271454 0.8609996 0.8779524 0.89450943 0.85254127 0.6149579 0.76887214 0.7438196 0.44224927 0.47220474 0.48847052 0.59159577 0.63984543 0.32681647 0.25900078 0.31524137 0.38196597 0.5402522 0.14450423 0.15646036 0.11645816 0.27023786 0.20925805 0.0888526 0.12670246 0.26054224 0.22400883 0.18449312 0.18691172 0.14302385 0.18061905 0.16613631 0.083369344 0.1997432 -0.037610978 0.19743094 -0.12728804 0.13721223 0.28874344 0.086076185 0.074913606 0.55227625 0.052273534 0.5710902 0.05159142 -0.3353493 -0.006952718 0.033997715 -0.24662966 0.53718567 0.1261152 0.13809066 0.22221935 0.24722534 0.2831247 0.43030238 0.16081846 0.24824332 0.25504795 0.21255423 0.2845514 0.29968414 0.22616047 0.29629582 0.30965346 0.26335645 0.3180326 0.39895374 0.42821956 0.46395543 0.20034678 0.31861705 0.30715048 0.27090994 0.22823961 0.31824467 0.32634813 0.40884912 0.4557488 0.4106835 0.33737653 0.3687973 0.19464362 0.3428841 0.35381868 0.4176201 0.47452584 0.4378789 0.3816735 0.25816554 0.17420039 0.27290213 0.28078973 -0.2291683 0.33313975 0.35032517 0.36100608 0.4459967 0.4689806 0.4368813 0.37882656 0.47872636 0.056602173 0.121716425 0.34131005 0.3283604 0.2947971 0.39616728 0.42562068 0.42193776 0.34100455 0.5100678 0.2873662 0.30365235 0.5535097 0.25313914 0.4988664 0.14194597 0.110062115 0.35749832 0.241362 0.17076015 0.14508486 -0.0013941079 -0.09938495 -0.110815525 0.015902054 -0.016072152 0.35767937 0.48282734 0.51101494 0.20239694 0.5013008 0.44097486 0.23724402 0.3210529 0.36431968 0.30675995 0.31239468 0.27897787 0.28576496 -0.18685642 0.35946584 0.3544691 0.37524644 0.37515694 0.26585224 0.594453 0.6012916 0.4625299 0.58620596 0.526031 0.39706472 0.3775206 0.30718082 0.034849823 0.49234506 0.10618404 0.5108723 0.6869643 0.64019513 0.51507616 0.69424915 0.86527514 0.92685014 1.0 0.9708241 0.8913386 0.7967969 0.83243847 0.7455431 0.7492706 0.62054086 0.66197187 0.7091383 0.36233038 0.67247486 0.30315477 0.2887907 0.2556958 0.19158247 0.13459979 0.2966512 0.116620205 0.110268 0.18791628 0.20176746 0.103895694 0.30425215 0.46360633 0.5176897 0.23188742 0.19064857 0.45682138 0.51960635 0.5424461 0.23893082 -0.04502432 0.36352947 0.4298104 0.47470248 0.4706155 0.21500896 -0.19534414 0.18471834 0.3434234 0.40004784 0.4032287 0.14772885 0.23918626 0.11206701 0.0724334 -0.05727873 0.43525767 0.11334249 -0.03745483 0.028412305 0.16901493 0.060243614 -0.06061002 0.48584712 0.32792544 0.080140896 -0.37477136 0.46430212 0.39246887 0.2720223 0.15453193 0.12459805 0.0086153075 0.18086892 0.06236236 0.3960421 0.07356514 0.056688525 0.13584527 0.19578245 0.19719289 0.04729291 0.08064388 0.1392273 0.13553245 0.124984056 0.20267408 0.30044636 0.36698794 0.4359501 0.466067 0.46507698 0.11361127 0.09599233 0.09701559 0.15422875 0.20664999 0.20513085 0.17686136 0.22657487 0.21469475 0.17433727 0.07566847 0.1542241 0.21324272 0.4204786 0.088793114 0.09439975 0.14264172 0.14108238 0.15363291 0.22508368 0.27170628 0.28940773 0.23797825 0.15339863 0.052405864 0.07545018 0.40117252 0.15485844 0.26005697 0.24498932 0.2313088 0.27537468 0.2805531 -0.032436743 0.13954498 0.06588063 -0.04411915 -0.15925452 0.4091063 0.41830927 0.36191657 0.2416654 0.20237884 0.27397072 0.32893252 0.24112093 0.21522805 0.4073095 0.47902757 0.46473956 0.30606857 0.2307022 0.30033565 0.22136301 0.2757638 0.33122006 0.6085937 0.60091543 0.53712434 0.36357582 0.24864838 0.27396813 0.2200265 0.42255238 0.2292121 0.6373384 0.6326543 0.55235034 0.45318165 0.33883876 0.27413422 0.060117185 0.6282129 0.5751697 0.45847207 0.10066827 -0.1051652 0.023513013 -0.049463406 -0.113107465 0.2696576 0.06409334 0.40136746 0.4925663 0.503474 0.2073178 0.49376768 0.25687644 0.26455393 0.436243 0.38636473 0.5373267 0.57852703 0.65565616 0.7008481 0.2552354 0.31569046 0.28373015 0.56529886 0.675717 0.7480538 0.737878 0.72734773 0.30538157 0.24467242 0.65114653 0.7064419 0.7148918 0.70963424 0.3716851 0.38402694 0.3831361 0.324844 0.33572078 0.28432986 0.57162416 0.62026906 0.64993024 0.43553716 0.33467734 0.5680882 0.5344379 0.38801134 0.42486292 0.33373684 0.2868506 0.4243839 0.42921627 0.40802053 0.37193513 0.43635875 0.7954408 0.78054327 0.95328635 0.90870976 0.86352265 0.61162746 0.6843208 0.70189977 0.80148685 0.7889834 0.6332984 0.78888035 0.75419605 0.6605693 0.74210465 0.30502757 0.27869788 0.120183274 0.5775749 0.34783378 0.2234359 0.2405849 0.5708529 0.63948333 0.6726909 0.58627254 0.6057564 0.48941627 0.5446209 0.12967972 0.41472906 0.42023402 0.42131248 0.12669502 0.25303864 0.30746853 0.10738692 -0.09607422 0.088393144 0.21752807 0.2472955 -0.16744219 0.15781581 0.28312206 0.0037946217 0.056162957 0.076673634 0.39198947 0.28708333 0.030507853 0.4133358 -0.13247083 -0.0028576925 0.4489231 -0.114694715 -0.15628585 0.4389608 -0.10926564 -0.011587266 0.06830917 0.07311196 0.043065947 0.37766713 0.39267612 0.28873444 -0.10723755 0.10579517 0.11824493 0.109719425 0.12547751 0.19417907 0.2667461 0.39479488 0.46192515 0.48058778 0.46941835 0.31616795 0.08160661 -0.006329842 -0.082632676 0.017695062 0.078077555 0.45362288 0.12249214 -0.09237991 0.02402788 0.21537061 0.13797492 -0.12512873 -0.143062 0.34949186 0.5051738 0.26369044 0.16326416 0.26762936 0.26094365 0.19492723 0.5710883 0.6228257 0.668724 0.34652594 0.36528292 0.18388487 0.29910374 0.3263167 0.29595327 0.25929138 0.2211116 0.53451216 0.6322861 0.48346698 0.07993484 0.02897381 0.10788117 0.26382202 0.012392469 0.4316837 0.55009556 0.55927175 0.058299772 -0.005935887 0.53695923 0.59774095 0.3249253 0.09409625 0.052201916 0.0039714566 0.41683173 0.082597405 0.61893094 0.6208637 0.50524575 0.41278216 0.3655957 0.269925 0.036894143 0.51189125 0.40840244 0.13899314 0.5687262 0.5331035 0.42744726 0.3809702 0.52567387 0.41377378 0.19975725 -0.036924034 -0.15067843 -0.01850576 0.28079614 0.38349587 0.4153635 0.4593491 0.37853009 0.37120727 0.31871575 0.12983535 0.41038084 0.4559396 0.41977543 0.4643762 0.47452736 0.48593026 0.2370838 0.37474018 0.43581644 0.48484966 0.6512292 0.646029 0.24071708 0.43199342 0.51623625 0.6950923 0.33081654 -0.10804809 -0.49812347 0.2168268 0.4045192 0.47882628 0.70428395 0.37667844 0.3816288 0.35159233 0.27423015 -0.32989985 0.24462381 0.430742 0.51014304 0.54366297 0.6026792 0.6300528 0.29664662 0.30786288 0.42515832 0.44892982 0.44413197 0.3700261 0.23997599 -0.20362985 -0.046376094 0.37406296 0.38674313 0.77220476 0.05771309 0.1746627 0.3909462 0.34802628 0.76222587 0.8328681 0.86522067 0.907431 0.8090255 0.88888115 0.92739344 0.93366796 0.8800986 0.8907566 0.91304004 0.91426563 0.77149904 0.5884923 0.6310955 0.70496583 0.75423455 0.78687716 0.5344761 0.530503 0.77962726 0.79950875 0.44830006 0.7954177 0.33550236 0.7497823 0.14062102 0.2936199 0.14817418 0.17960092 0.46077782 0.43291834 0.1625223 0.08525647 0.51789796 0.613202 0.67553425 0.40683448 0.3988791 0.058400176 0.0635018 0.63807595 0.7007427 0.71694696 0.32057154 0.6738047 0.66691095 0.5752357 0.041183107 0.4527396 0.108396634 0.2972468 0.3526755 0.09679807 0.10309308 0.2757792 0.2997961 0.06622758 0.21083485 0.3114646 0.09455619 0.07704927 0.33919746 0.040339693 -0.018913738 0.34378245 0.35929626 -0.100241385 0.35336494 0.38080275 -0.15717755 0.085788324 0.22851741 0.32082838 0.34137347 -0.027327606 0.06743896 0.105887964 0.27203602 -0.042247206 0.01834821 0.03211304 0.078396425 0.23886642 0.39576203 0.4944755 0.49235743 0.065696426 0.24794948 -0.03573499 -0.05859017 0.02619791 0.45528692 0.49000323 0.6958512 0.73410296 0.23070395 0.18731196 0.76227355 0.780239 0.3403029 0.27993158 0.19546422 0.07726157 0.7890359 0.3574374 0.4171229 0.19421062 0.25843692 0.72309756 0.47605067 0.48835507 0.05788881 0.08146372 0.030694626 0.51534 -0.066938736 0.21543203 0.4702302 0.47069818 0.16903272 0.5095992 0.5618992 0.048859015 -0.023728386 0.13000184 0.20608278 0.24454074 0.5652193 -0.22706082 0.5581292 0.5434294 0.53535384 0.4734585 0.3355025 0.16899821 0.043969534 0.028310701 0.0865847 0.17795256 0.6009864 0.58973324 0.0065536913 -0.24925946 0.525059 0.51154506 0.4356797 0.28251758 0.09759823 0.082561694 0.385746 0.13933891 0.041174132 -0.16224752 0.084247194 0.22502947 0.33773577 0.3280395 0.38918424 0.26471138 0.24533328 0.13205233 0.37457442 0.1814598 0.34264585 0.42168033 0.15058629 0.25202236 0.35579526 0.38043684 0.5230073 0.7407104 0.68104935 0.18437329 0.18787552 0.34924814 0.3690673 0.75600976 0.7268573 0.6398117 0.12069453 -0.023566738 -0.39155883 0.38852966 0.63904 0.7318008 0.70461553 0.66276014 0.29417723 0.31097943 0.25348583 0.15239418 -0.39382738 0.190945 0.36563122 0.39706868 0.49842823 0.45959565 0.2100454 0.19059868 -0.13128988 0.23333083 0.37926084 0.4190818 0.44695565 0.42028943 0.3555721 0.014399514 0.05391924 0.279733 0.450409 0.4534318 0.42535543 0.76657075 0.7401384 0.7050706 0.60967076 0.33641312 0.7059636 0.7708527 0.7755673 0.7243538 -0.029033087 -0.11455215 -0.31461656 0.39970392 0.40609533 0.6294327 0.69845486 0.7189367 0.6944604 0.2805222 0.41564775 0.6166123 0.6384189 0.65464664 0.59903646 0.5200181 0.43179855 0.6803029 0.62571687 0.7201457 0.655252 0.7577039 0.7717552 0.84202033 0.8706014 0.8340729 0.84698534 0.8743923 0.8993349 0.89440244 0.8641205 0.8663688 0.8814286 0.88520616 0.5892585 0.547119 0.6521971 0.7327503 0.38782954 0.5186572 0.48549145 0.6094885 0.67781913 0.7691754 0.55272263 0.094926074 0.3693921 0.4606291 0.5037277 0.41671118 0.30572775 0.25424558 0.098258704 0.08268981 0.043536693 0.48600164 0.4828431 0.023008555 0.16769955 0.38280484 0.52879965 0.59292054 0.68014604 0.41908222 0.44440204 0.70619047 0.7240366 0.41002625 0.33893073 0.72586936 0.6793049 0.57567596 0.43957394 0.111617245 0.32188612 0.100678414 0.31651142 0.07518937 0.32864547 0.21917184 0.05002426 0.15735093 -0.0941829 0.1434903 0.30632538 0.23314846 -0.08309279 0.12628868 0.27978113 0.35628417 0.3922326 0.16892564 -0.0014534798 0.21807411 0.32471684 0.34007573 0.14307928 0.25553763 0.21737368 0.1811913 0.1871621 -0.13973714 0.05233364 0.08507794 0.07422635 0.13284272 0.46217245 0.20276397 0.1845253 0.32308686 0.10704508 0.015873931 0.30773345 0.2638071 0.68888545 0.7456083 0.10171089 0.26591963 0.5463971 0.60260665 0.76767826 0.81256634 0.25410914 0.1737151 0.026191667 -0.34346354 0.15875793 0.81969655 0.3315587 0.1968104 0.77945507 0.37713194 0.22382249 0.59859276 0.44108912 0.26377562 0.31052625 0.43562388 0.4600701 0.31675765 0.41572255 0.4872654 -0.21647662 0.48083264 0.5028945 0.2125816 0.2064493 -0.028250933 0.24921983 0.4045897 0.476847 -0.14893657 -0.20802915 0.48770633 0.4376396 0.37999123 -0.106845066 0.25565922 0.18982854 0.60782564 -0.17139897 -0.20921183 0.044113122 0.24736379 0.27849543 0.06962725 0.011926424 -0.047557727 0.22428206 0.3221683 0.6828445 0.5893953 0.05545602 0.16759959 0.34224957 0.07508632 0.68544316 0.7394637 0.6874606 0.5906596 0.47102857 -0.0068928236 0.18122542 0.3143566 0.53381884 0.6933074 0.6043324 0.5438793 -0.120065 -0.017740414 0.33595425 0.32915503 0.70648694 0.703637 0.6088328 0.5248559 -0.014172464 -0.020582676 -0.34185746 -0.3293471 0.629858 0.59007263 0.52720696 0.008966193 -0.036447424 -0.20718703 -0.17800502 -0.23643604 -0.30635124 -0.10616584 0.07652284 0.362946 0.25026593 0.59642994 0.42126995 -0.0402539 -0.2182983 -0.09172982 -0.011876874 0.20051643 0.44066232 0.45611137 0.3855216 0.2953296 0.65712655 0.70728666 0.42025858 0.027064119 0.09872419 0.50081086 0.47442484 0.42777163 0.6448868 0.47402465 0.014985165 0.2760498 0.31047884 0.48152268 0.5734378 0.49887538 -0.04308498 0.22570159 0.2041681 0.5341695 0.536788 0.55868995 0.5256016 0.47163832 0.4839819 0.45533362 0.47526243 0.465568 0.4604272 0.43905568 0.5410931 0.53886616 0.6404552 0.6315763 0.8106103 0.7630155 0.7244833 0.82273084 0.83058333 0.84683317 0.81268525 0.8490139 0.8528305 0.8340232 0.83269143 0.38786227 0.4820261 0.465119 0.21414821 0.20532571 0.5110512 0.4984312 0.4570992 0.41700205 0.21935499 0.104509845 0.5344446 0.50122833 0.08740349 0.0024923384 -0.17145933 -0.051242337 0.054544985 0.45175362 0.6117027 0.64512306 0.54224825 -0.045652613 -0.008264875 0.2367893 0.40904182 0.55345654 0.6307248 0.68712544 0.4902395 0.66506743 0.3755425 0.5842226 0.37404308 0.0946558 0.3476349 0.09168928 0.310175 0.30285823 0.07478696 0.12830675 0.2773192 0.36072445 0.024137195 0.360755 0.11307436 0.34888 0.2337382 0.22728014 0.19578682 -0.10951373 -0.055722047 -0.057949685 -0.0018561408 0.24295314 0.19474488 0.2275677 0.14016101 -0.07949558 -0.07521784 -0.38413814 0.53856957 0.6556178 0.74311537 0.76724124 0.21324688 -0.04640162 -0.33632797 -0.34436297 0.32778847 0.69577944 0.7376907 0.22252816 -0.078617305 0.65879166 0.67718387 0.27272242 -0.28504354 0.25933552 0.21658415 0.37931818 0.47754064 0.28914198 0.27638486 0.47432703 0.4926545 0.29684454 0.11921393 0.15910801 0.4126438 0.43389475 0.33996952 0.42431876 0.016445026 0.40900362 0.24242644 0.20262949 0.017316144 -0.21738945 -0.26385462 0.3767656 0.531389 0.24918231 0.30438504 0.17767307 -0.006679386 0.052522242 -0.10481331 0.48129618 0.28812146 0.30028626 0.54562545 0.6079652 0.46287197 0.32251966 -0.14081827 0.5450523 0.2878435 0.15805504 0.44446993 -0.17941456 0.24677582 0.44219494 0.21750602 0.41715246 0.3644628 0.3357788 0.24397376 0.43815744 0.33068177 -0.012893625 0.020944618 0.30015612 0.5575339 0.5037718 0.47331727 0.042739168 0.045336947 -0.16801278 0.41835892 0.16090468 0.41634694 0.44701624 0.43248767 0.4725027 0.38765234 -0.15247059 -0.273473