# vtk DataFile Version 2.0
Really cool data
ASCII
DATASET POLYDATA
POINTS 2717 float
-25.621202 -18.975798 -31.036667
-25.732065 -19.071945 -30.295366
-25.74201 -19.024618 -29.68091
-25.73061 -18.358059 -31.068403
-25.967321 -18.450588 -30.343483
-25.934484 -18.3239 -29.505173
-25.811598 -17.949018 -31.033752
-26.034292 -17.674305 -30.291912
-26.00439 -17.616385 -29.671652
-25.716465 -17.915842 -29.006872
-25.781128 -17.114635 -30.328232
-25.799604 -17.13841 -29.705093
-24.76514 -19.825788 -31.984135
-24.887117 -19.98819 -31.40152
-24.988703 -20.026352 -30.406012
-24.90202 -20.084932 -29.617609
-24.863981 -19.873415 -28.912891
-24.841265 -19.351593 -32.224915
-25.393839 -19.358032 -31.198402
-25.440481 -19.466871 -30.647102
-25.418476 -19.488432 -29.385366
-25.21585 -19.253004 -28.789408
-24.963387 -18.987135 -28.370947
-25.033096 -18.598694 -32.151886
-25.424871 -18.492914 -31.697872
-25.306986 -18.461496 -28.663921
-24.891224 -18.728415 -28.309122
-24.938658 -17.672544 -32.052902
-25.446781 -17.707594 -31.451864
-25.37158 -17.560823 -28.874006
-25.468752 -17.080591 -30.767338
-25.365068 -16.728111 -30.230604
-25.355055 -16.82318 -29.65032
-25.427296 -17.164846 -29.108858
-24.844254 -3.9587111 -24.795599
-25.196041 -4.0642815 -24.069065
-25.203665 -4.1903195 -23.459421
-24.985712 -4.453964 -22.85681
-24.833073 -3.6217434 -24.800703
-25.217714 -3.6248765 -24.07329
-25.319893 -3.5510767 -23.554945
-25.130493 -3.5425103 -22.778772
-24.722551 -2.9499729 -24.877808
-24.843758 -2.6556478 -24.384775
-25.035631 -2.770452 -23.44025
-24.827711 -2.691952 -22.81327
-24.694283 -2.2528157 -23.429546
-23.938057 -20.573551 -30.40452
-23.957706 -20.516657 -29.944967
-24.261166 -19.989351 -32.288967
-24.442295 -20.268454 -31.570162
-24.514206 -20.32481 -30.605652
-24.423622 -20.307371 -29.557457
-24.250265 -20.047773 -28.654428
-24.09176 -19.822008 -28.276789
-24.150568 -19.279642 -32.75242
-24.520845 -19.580528 -32.422768
-24.431036 -19.36622 -28.188751
-24.398716 -18.41249 -32.769382
-24.621483 -18.651535 -32.557663
-24.411266 -18.77069 -28.101093
-24.331783 -17.927856 -32.755844
-24.306656 -17.824905 -28.348816
-24.479244 -16.916727 -31.91684
-24.763058 -16.769571 -29.308147
-24.617685 -17.034561 -29.041672
-23.697598 -13.064167 -32.896423
-23.766153 -13.36136 -32.082623
-23.610144 -13.810797 -32.02928
-23.636633 -12.368048 -33.200977
-23.764904 -12.603726 -32.516457
-23.750502 -12.773929 -31.959715
-23.612453 -11.630773 -32.954514
-23.646902 -11.519874 -32.51328
-23.611471 -11.5841675 -31.890512
-23.573034 -7.8291802 -20.110981
-23.830914 -7.171558 -20.489298
-23.785093 -6.042564 -24.261215
-23.871714 -6.1437535 -21.681496
-23.941168 -6.647569 -20.501787
-23.726164 -6.4283447 -19.505087
-23.604736 -6.182181 -18.990416
-24.390306 -4.8083367 -24.79419
-24.492964 -4.992694 -22.493942
-24.215145 -5.299926 -21.984781
-23.906176 -5.5234637 -20.45005
-23.829376 -5.3450246 -19.635893
-23.590761 -5.7061634 -19.024612
-23.830002 -4.3309116 -25.295797
-24.13516 -4.5347023 -21.606455
-23.795938 -4.7250013 -20.263662
-24.278196 -3.3428905 -25.303114
-24.213495 -3.347428 -21.941414
-23.804625 -3.9878397 -21.223274
-24.182364 -2.7288537 -25.19877
-24.437878 -2.3642898 -24.671957
-24.561619 -2.697739 -22.528214
-24.215473 -2.8277159 -22.170742
-24.168234 -2.2238078 -24.936522
-24.307787 -2.121683 -24.370995
-24.390802 -2.0154326 -23.583626
-23.86888 -2.2481225 -22.353401
-23.584938 -20.55191 -31.514296
-23.370129 -20.563549 -30.290342
-23.815113 -20.512083 -29.682047
-23.21531 -19.87283 -32.68714
-23.485287 -20.244719 -32.24128
-23.629318 -20.486856 -31.806786
-23.416138 -20.420704 -29.623339
-23.78368 -20.150785 -28.647295
-23.695362 -19.776512 -28.20729
-23.607506 -19.294064 -32.88787
-23.951765 -19.651749 -28.146662
-23.694582 -18.41645 -33.04602
-23.766806 -18.495646 -27.976824
-23.461662 -17.61002 -28.357786
-23.714146 -16.825682 -32.452522
-23.21516 -16.687637 -28.998053
-22.985645 -14.983397 -33.394566
-23.438208 -15.86611 -30.11791
-22.86816 -14.265502 -33.840164
-23.270735 -14.452223 -33.348557
-22.737562 -14.163003 -30.034176
-23.147865 -13.328641 -33.7096
-23.367748 -13.321565 -33.3657
-23.52893 -13.886937 -31.422466
-23.22986 -13.284036 -30.972013
-23.425606 -12.441835 -33.437267
-23.079165 -12.362081 -30.812065
-23.060328 -11.768091 -33.737495
-23.36488 -11.477932 -33.345753
-23.529732 -11.806775 -31.561087
-23.203005 -11.689295 -30.998455
-22.57514 -11.14042 -24.505354
-22.606983 -11.339417 -23.55551
-23.146257 -10.742404 -33.13364
-23.341627 -10.764966 -32.539032
-23.320114 -11.061826 -31.650312
-23.050562 -11.121459 -31.123823
-22.701042 -10.177249 -25.228949
-22.762787 -10.524671 -24.610018
-22.748968 -10.288309 -23.412884
-22.875408 -10.363238 -32.99963
-23.01019 -10.334316 -32.553722
-22.931541 -10.345032 -32.01102
-22.91931 -9.374666 -24.386238
-22.820475 -9.622993 -23.911064
-22.668118 -9.279169 -22.726772
-22.572098 -9.688433 -20.57895
-22.836208 -9.255852 -19.314188
-22.772943 -9.069979 -18.828125
-22.553055 -8.816887 -25.625896
-22.822166 -8.776174 -23.090944
-23.435179 -8.162378 -20.933325
-22.866285 -8.344097 -18.675425
-22.663824 -8.4763565 -18.244284
-22.702574 -7.65079 -25.499897
-22.824404 -7.4604635 -24.137342
-23.419575 -7.190907 -19.322002
-23.204782 -7.263351 -18.801546
-22.615145 -6.3086677 -26.43367
-22.783894 -6.5693336 -25.7919
-23.553034 -6.861869 -19.204617
-23.382957 -6.297806 -18.711344
-22.998783 -6.4463687 -18.203415
-22.756922 -5.1682587 -26.082458
-23.403488 -5.0830455 -25.488863
-23.391645 -5.570484 -18.695911
-22.936558 -5.7225595 -18.22626
-23.221348 -4.460176 -25.726482
-23.37243 -4.550745 -19.413483
-23.031157 -4.876931 -18.619919
-22.846048 -5.084694 -18.282299
-23.25898 -3.1802623 -25.728262
-23.145306 -3.9964592 -20.272764
-22.90297 -4.1056027 -19.464006
-22.961037 -4.318986 -18.906122
-23.68588 -2.7807047 -25.552134
-23.552532 -2.5427346 -25.387781
-23.413881 -2.669096 -21.807428
-23.175188 -2.0903044 -25.095423
-23.308815 -1.6871588 -22.838411
-22.575039 -20.560394 -31.229725
-22.654758 -19.773943 -32.64048
-22.620905 -20.015583 -32.412014
-22.094492 -20.509644 -29.973635
-22.533558 -19.399439 -32.875782
-22.368065 -19.149775 -28.213371
-22.181376 -18.870113 -33.095875
-22.71048 -17.181372 -28.328289
-22.132084 -15.424959 -33.941425
-22.496408 -15.46251 -29.155067
-22.482023 -14.428961 -34.126354
-22.542278 -14.439424 -29.65049
-22.103378 -14.674625 -29.191086
-22.28064 -13.59331 -34.316498
-22.45 -13.96526 -29.762959
-21.791391 -12.83281 -24.153633
-21.861486 -12.846799 -23.686152
-22.171549 -12.965621 -30.11918
-21.67831 -12.299165 -26.08639
-21.76206 -12.396916 -25.59265
-22.40033 -11.950329 -24.289745
-22.13732 -12.307992 -23.478512
-21.990057 -12.235556 -22.41649
-21.902288 -12.16526 -21.57514
-21.712275 -11.79791 -20.491705
-22.457775 -11.384408 -34.02523
-22.59925 -11.934255 -30.458166
-21.831932 -11.36744 -26.395586
-22.313099 -11.343339 -25.228077
-22.457027 -11.668928 -24.166826
-22.420528 -11.008019 -22.115036
-22.253948 -11.512679 -21.568905
-22.073244 -11.447059 -20.817808
-21.87111 -10.99492 -19.788675
-22.373653 -10.941287 -33.834183
-22.621096 -10.594695 -33.403763
-22.613506 -10.436264 -31.599613
-22.315355 -11.048622 -30.611898
-22.497124 -10.593201 -25.273865
-22.373074 -10.16423 -22.412565
-22.1832 -10.292769 -19.305038
-22.002153 -9.760108 -18.212221
-22.320478 -10.253227 -33.11555
-22.568348 -10.116625 -32.587368
-22.35243 -10.30705 -31.710817
-22.267065 -9.752439 -25.96633
-22.375633 -9.596917 -18.488686
-22.123343 -9.267328 -18.007357
-22.359484 -8.283733 -26.216898
-22.453093 -8.615702 -18.129707
-22.000435 -7.1241817 -27.14265
-22.216267 -7.581568 -17.942715
-22.234715 -6.5518026 -26.957138
-22.343075 -6.4290752 -17.82006
-21.74986 -5.8530912 -27.223127
-22.424227 -5.6586866 -26.442488
-22.370834 -5.651593 -17.852196
-21.928337 -5.148151 -26.710884
-21.894672 -4.2170815 -26.451918
-22.566721 -4.4844437 -18.513195
-22.228596 -4.7902584 -18.024288
-22.574795 -3.2290735 -25.90745
-22.190426 -4.1053867 -18.664795
-22.33999 -2.8222253 -25.517868
-22.13116 -2.1605246 -25.178953
-22.837206 -2.036234 -24.625246
-22.011766 -1.152351 -24.403952
-22.289484 -1.2520367 -23.469292
-21.782288 -0.2997055 -22.896933
-21.637213 0.6419945 -23.510815
-21.77474 0.5795947 -22.461262
-21.716467 0.73562175 -21.89679
-21.634113 1.1872745 -22.21435
-21.708208 0.9410005 -21.708267
-21.652674 -19.8489 -32.352528
-21.425646 -20.400425 -30.787613
-21.545269 -20.287886 -29.508696
-20.690765 -20.026976 -26.325933
-21.551277 -19.20526 -32.85894
-21.349823 -19.615778 -32.587303
-20.976467 -19.175259 -25.298107
-20.72592 -19.188847 -24.731798
-21.063175 -18.728645 -26.15497
-20.845736 -18.41283 -24.572332
-20.622198 -18.134708 -24.189571
-21.420284 -17.040743 -33.389378
-21.450672 -16.223677 -33.592144
-21.16401 -16.296207 -26.774084
-20.998074 -16.307028 -25.563725
-20.86118 -16.749176 -24.99093
-21.609024 -15.1906185 -34.19979
-21.279854 -16.138113 -27.59942
-21.162086 -16.200708 -26.89204
-21.50065 -14.41284 -34.444244
-21.426136 -14.218175 -28.896196
-20.817574 -13.72401 -23.610695
-21.584143 -14.119053 -29.005098
-20.728739 -13.330711 -25.972395
-21.183033 -13.251034 -25.165483
-21.237473 -13.2938595 -24.170206
-21.089317 -13.32086 -22.628918
-21.18367 -12.942584 -21.870224
-21.287062 -12.333478 -34.687916
-21.390793 -12.359304 -30.212854
-21.458082 -12.174327 -26.513906
-21.46324 -12.5796795 -21.66934
-21.245619 -11.780348 -19.917717
-21.351334 -11.491006 -34.549583
-21.438946 -11.603572 -26.881351
-21.575497 -11.288141 -26.662989
-21.494392 -11.32384 -19.727232
-21.027607 -11.211114 -18.836443
-21.571327 -10.691555 -33.99768
-21.563398 -10.573832 -31.033592
-21.364899 -10.511116 -18.467857
-21.432089 -10.10384 -18.065254
-21.476727 -10.26807 -33.27504
-21.175451 -10.237974 -32.272026
-21.954401 -10.328474 -31.554626
-20.812674 -9.324332 -27.153782
-21.37627 -9.157902 -17.610481
-21.374653 -8.6574955 -17.627222
-21.562178 -7.5078487 -27.393478
-21.18488 -8.030927 -17.805422
[...]
POINT_DATA 2717
SCALARS features_00 float 1
LOOKUP_TABLE default
0.6969203 0.771428 0.84291726 0.7103576 0.79947346 0.8870734 0.7309258 0.831261 0.8600806 0.8537426 0.82596374 0.8321984 0.67570364 0.69079626 0.70681775 0.7228079 0.74112844 0.65062004 0.686959 0.7231004 0.8112422 0.79626286 0.76018476 0.6192447 0.6424966 0.8121075 0.74794704 0.5801125 0.6588935 0.7769385 0.7561295 0.7682557 0.76311505 0.76545715 0.6229885 0.7011562 0.6915175 0.5870389 0.6421303 0.7294673 0.7422536 0.6521525 0.65026075 0.7108997 0.7514436 0.66329634 0.71710527 0.61921704 0.6246115 0.6797321 0.6893218 0.6687604 0.6795637 0.70695186 0.7011781 0.6501237 0.6617948 0.7184845 0.6018961 0.6151944 0.69570017 0.5698478 0.630221 0.5452118 0.60258377 0.58116674 0.5696262 0.5633953 0.53668845 0.60781854 0.5990342 0.5858967 0.67937094 0.6976976 0.69158596 0.3096453 0.29112184 0.264769 0.22272784 0.30031675 0.36625755 0.40571082 0.48173943 0.40484095 0.29806176 0.3303748 0.39781988 0.4246659 0.42267078 0.33470303 0.34825507 0.5460352 0.44987473 0.31177062 0.5468732 0.6306838 0.59247404 0.503186 0.5461223 0.62467486 0.67897946 0.5261897 0.66195524 0.56219745 0.617542 0.6294038 0.6656932 0.6755971 0.5732383 0.6607444 0.6571667 0.6368017 0.6838783 0.59590364 0.6316724 0.48611343 0.44906163 0.20379804 0.40288138 0.14895236 0.4362152 0.44570658 0.13824502 0.49507856 0.53207564 0.4777207 0.45601034 0.58689624 0.51763564 0.6291593 0.6790235 0.656416 0.63469446 0.30661696 0.2909437 0.7139282 0.742401 0.73717546 0.7111271 0.26881438 0.28615803 0.25325376 0.7145807 0.73960066 0.7442517 0.22973889 0.23480953 0.17153174 0.2184322 0.34014595 0.3642177 0.20959938 0.15114848 0.23391148 0.37076133 0.39255208 0.21912287 0.1125434 0.3478031 0.36480772 0.20553824 0.21090975 0.36354548 0.41397792 0.41677898 0.18018502 0.25383875 0.4470572 0.4626609 0.29408383 0.4214291 0.4625643 0.47461468 0.3746372 0.32632983 0.40962645 0.4456762 0.44242132 0.41778702 0.3795591 0.3380773 0.53846174 0.5890987 0.5521946 0.55798197 0.48608926 0.49719322 0.5248582 0.38379452 0.15136194 0.41420007 -0.013482306 0.4330107 0.071113214 0.03631336 0.46127826 0.13633056 0.2838588 0.25363237 0.28573218 0.32042143 0.33499336 0.31986803 0.27574414 0.24118918 0.23602618 0.21065173 0.6130546 0.5142224 0.29812935 0.31448647 0.31401408 0.25474426 0.25681487 0.23796353 0.20806046 0.62624097 0.6750617 0.7233066 0.6645414 0.28397334 0.217294 0.27384815 0.35223186 0.6752033 0.71047926 0.70301044 0.24015686 0.3593027 0.39167768 0.23823659 0.39920837 0.23856616 0.38640562 0.2182473 0.42638823 0.186261 0.17967677 0.46925327 0.1741834 0.17653166 0.46318913 0.48027045 0.27353635 0.4532752 0.24878854 0.2148746 0.30660808 0.21999806 0.25549856 0.40981063 0.5093315 0.617942 0.70119417 0.7070412 0.7374406 0.42109695 0.5459869 0.37858403 0.36373863 0.3395428 0.36345613 0.44055557 0.44384775 0.40771914 0.4283511 0.39067137 0.18474762 0.23953784 0.007254526 0.19577177 0.24730547 0.38550317 -0.17474817 0.00043419003 0.4153184 0.038765624 0.12593934 0.0649186 0.29425806 0.31184143 0.23682272 0.13821211 0.16598025 0.4757548 0.3802368 0.28926608 0.20043442 0.17011102 0.4726137 0.23745896 0.25708127 0.18707997 0.18799867 0.54938126 0.6126406 0.24647602 0.30053878 0.6233977 0.6191791 0.66562426 0.0807793 0.37240168 0.368329 0.21370745 0.32529825 0.17804605 0.18912339 0.17131665 0.17116264 0.45183313 0.16455509 0.47907025 0.47090694 0.47809416 0.17402008 0.16243175 0.17922609 0.3146382 0.44647017 0.48013413 0.69136643 0.71128845 0.59113693 0.60727835 0.73391473 0.7632951 0.76526994 0.7417774 0.81221354 0.7958784 0.22806257 0.3300374 0.35920802 0.34014183 0.35235932 0.33339775 0.37727487 0.40016565 0.28021187 0.27487716 0.4224134 0.40411058 0.17951562 0.16417906 0.39462873 0.33717245 0.1422077 0.3585425 0.11296571 0.21254395 0.08948613 0.21621361 -0.082338855 -0.018536545 0.10400017 0.2961682 0.36330765 0.016460016 0.20662433 -0.17040427 0.26832104 0.054612402 0.19719693 0.07016783 0.3489877 -0.08262297 0.042390164 0.18843603 0.32627413 0.5233538 0.529224 -0.04838393 0.27088487 0.45107216 0.43000928 0.5829747 0.08436741 0.2555474 0.036899477 0.13989669 0.33556122 0.14394073 0.391384 0.3879227 0.13864635 0.14315167 0.45205882 0.40812603 0.43267003 0.10315859 0.42304194 0.2339246 0.40827578 0.47021496 0.69673383 0.5580946 0.6372849 0.7716991 0.71030146 0.77625203 0.82879996 0.8241208 0.80389374 0.41603142 0.39588845 0.3658468 0.3310292 0.35473645 0.3381114 0.018269636 0.36827445 -0.04958394 0.297238 0.004609987 0.16781592 0.09120223 0.18093082 0.24629505 0.3600241 0.3950286 0.32501903 0.39780372 0.22151273 -0.056042112 0.066933356 0.14998901 0.3716311 0.4383647 0.49307352 0.52894807 0.19578172 0.5082633 0.55698514 0.15253063 0.08350067 0.0040662214 0.47426146 0.07492879 -0.032899253 0.2591346 0.10792868 0.036449898 0.020759784 0.070091195 0.05240443 0.06458693 0.086284764 0.12980399 0.3402328 0.14075974 0.34304297 0.17686936 0.16417518 0.04668351 0.55563885 0.58478254 0.6856525 0.7884044 0.73366123 0.72465515 0.7581104 0.7893778 0.80522144 0.7673907 0.7752099 0.48240596 0.48162174 0.48068455 0.48314917 0.4178443 0.32035416 0.25706884 -0.045948587 0.19268785 0.20532921 -0.014765933 -0.034401834 0.114856854 -0.068194985 0.1724261 0.3352515 0.3813427 -0.053359367 0.4072516 0.38762873 -0.115152754 0.38084108 0.062365927 0.2700922 0.18618746 0.23065314 0.4600349 0.50476646 0.43348098 0.3779774 0.51164937 0.5366811 0.4018594 0.38386565 0.5732598 0.37401336 0.35871366 0.40772107 0.5387347 0.3663547 0.35421157 0.32986414 0.20902443 0.13815056 0.0019659335 0.32732132 0.1457447 0.06210895 0.11291332 0.15567498 -0.13833232 0.047816724 -0.14288068 0.098244965 0.23655781 0.092768155 0.062349796 0.12966232 0.14982074 0.1181176 0.16582178 0.2504573 0.4961859 0.2302815 0.35525718 0.6776552 0.74577487 0.74926865 0.7574245 0.7587159 0.7584872 0.7647243 0.5435666 0.54144436 0.5251874 0.51111114 0.5397557 0.51866925 0.4897395 0.4502282 0.41015744 0.3596211 0.14466831 0.15829653 0.16944304 0.05140698 0.028153177 0.050314747 0.043166492 0.17528288 0.31181258 0.34338713 0.10758169 0.344688 0.078471795 0.30122954 0.21541962 0.044867396 0.44297516 0.3533707 0.37847754 0.4656722 0.4561065 0.44584936 0.49344745 0.46414152 0.4660092 0.5340248 0.4026997 0.39623633 0.56581616 0.38241345 0.37299293 0.525426 0.36736554 0.32437277 0.33109438 0.2841956 0.23682839 0.056343492 -0.062090956 -0.082320765 0.09373719 0.24129131 -0.033481233 -0.0042574555 -0.21477723 -0.051703565 -0.14850962 -0.13860247 -0.0035082418 0.073068365 -0.06636071 0.059922844 0.12767716 0.21827094 0.42997652 0.45178425 0.37112725 0.33912027 0.55917746 0.49557352 0.41118902 0.41246825 0.41575035 0.61105 0.5606573 0.55994457 0.43780088 0.57831365 0.4547579 0.73296106 0.60934365 0.7396208 0.7503903 0.5953955 0.5735935 0.53351986 0.535074 0.5246774 0.47124892 0.39422363 0.14707114 0.22941482 0.23231381 0.13241738 0.07947887 0.1004411 0.053400256 0.1336505 0.14045866 0.0896077 0.05701325 0.1254762 0.2792399 0.12075861 0.33461168 0.2954079 0.21299294 0.0808982 0.33841118 0.039137155 0.3503132 0.43355626 0.43680757 0.39269096 0.45366192 0.4401058 0.37784526 0.3663333 0.3611835 0.2700162 0.2682523 -0.3215732 -0.121519536 0.21041486 0.170567 -0.32981363 -0.06251161 -0.085303925 -0.12350857 -0.05084662 -0.024819309 0.055512775 0.30073866 0.28165662 0.37889558 0.43161643 0.4143299 0.29656246 -0.09000937 -0.44355065 0.39900985 0.4576481 0.5391832 0.4341772 0.21952212 0.46216607 0.4344206 0.6174875 0.6318486 0.60993147 0.5561683 0.38427806 0.2924803 0.48119542 0.49325013 0.4616234 0.63539773 0.6639662 0.63812035 0.5741927 0.6115984 0.6257286 0.5822782 0.5738901 0.6042737 0.5667381 0.51431453 0.47597533 0.14801866 0.26075315 0.11067702 0.13587451 -0.05794117 0.22943133 0.21777943 0.23825085 0.11802721 0.107372746 0.14188801 0.108867794 0.118696794 0.13372403 0.0027637333 0.10076699 0.026507959 -0.06705752 0.37511653 0.28957444 0.40586704 0.39969105 0.27697057 0.45624977 0.4634429 0.1666286 0.41731557 0.40636957 0.016520333 0.3531665 0.33305 0.26605213 -0.14405668 -0.5119096 0.305986 0.2255254 0.13623057 0.11774887 -0.16605875 -0.57806325 0.2987944 0.4033671 0.1601672 0.09511304 -0.02912908 -0.25536376 -0.19694816 0.21707684 0.39671808 -0.09089498 0.32636607 -0.06395401 0.08322612 0.29978657 0.30356342 -0.41995895 0.33305454 0.3974135 0.3309555 -0.2021478 -0.16652632 -0.047936447 0.13219719 0.47428274 0.43557978 0.5301798 0.57275534 0.36254546 0.31348246 0.45272744 0.5355957 0.5145858 0.61478543 0.6351008 0.6234473 0.5424144 0.60589576 0.59737825 0.52702904 0.55196047 0.5995785 0.5924661 0.56332105 0.33162045 0.46066657 0.47889203 0.20563829 0.27975112 0.3331805 0.097084545 0.28121313 0.2765804 0.032966256 0.10061626 0.2313096 0.11206684 0.1658439 0.2509689 0.19838123 0.17088026 0.28962204 -0.19223398 0.088860445 0.19149047 0.43201622 0.39401653 0.24944454 0.070334695 0.47158927 -0.055609528 0.46949297 0.402927 -0.075729884 0.28428382 0.3122011 0.4236278 0.40365776 0.36708015 0.46386617 0.36434442 0.41857147 0.40707594 0.41347665 0.31131822 0.12108888 -0.0025054514 0.005105421 0.37728548 0.3942713 -0.032617986 0.21630728 0.21254817 0.23911023 0.2310241 0.28549182 0.37789705 -0.020054348 0.060859013 0.444695 0.49169648 0.17904389 -0.0888819 0.27782145 0.4979397 0.4919406 0.45312068 0.5428302 0.56901133 0.55299276 0.5171152 0.4325374 0.49059874 0.49927643 0.5301306 0.52316695 0.4374857 0.45341665 0.46379322 0.42296362 0.3020044 0.34430635 -0.029840384 0.33687037 0.1699574 0.033359364 -0.1281031 0.29349834 0.22688586 0.18039961 0.24597362 0.2643834 0.28067523 0.18847197 0.2679479 0.28810912 0.11697377 0.28749973 0.23417442 0.41583884 0.2123779 0.4712038 0.46477923 0.46502173 0.029400501 0.44165775 0.39752012 0.23333815 0.18147375 0.38556585 0.3271696 0.4618264 0.36357582 0.46982825 0.39861265 0.45029145 0.38726884 0.3864571 0.36656702 0.30490813 -0.018423676 0.12475233 0.2312279 0.025790155 0.16901721 0.33241445 0.12567994 0.41865948 0.37213323 -0.01783767 -0.01803147 -0.01722262 -0.0684055 0.314389 0.48058504 0.44370866 0.4493903 0.4615745 0.42096877 0.24652454 0.00018672645 0.1977964 -0.12411888 -0.12303689 0.119406715 0.26887402 0.32995805 0.22620967 0.10207604 -0.1777761 0.37325245 0.32166687 -0.16461131 0.17071664 0.3031167 0.27194017 0.10611562 0.21242388 0.23647259 0.25973362 0.28790647 0.21003416 0.30533892 0.16934085 0.3120281 0.023802653 0.29045567 0.22842503 0.45037538 0.46132192 0.108469866 0.40274942 0.5587459 0.6508266 0.70315504 0.41292545 0.694626 0.7491945 0.79633904 0.29723397 0.60844386 0.73800623 0.7866021 0.40432203 0.255036 0.5979456 0.6782055 0.74596334 0.43184164 0.44097388 0.39199057 0.3652234 0.26046592 0.13327256 0.10657286 0.13898277 0.037829466 0.27393112 0.34288198 0.37034923 0.16484118 -0.005842179 -0.045199133 -0.031271003 0.19172437 0.44376248 0.1889111 0.37213886 0.37824002 0.39536452 0.47541365 0.45665264 0.43169707 0.4564919 0.56631124 0.5612664 0.4552282 0.2858814 0.114717185 -0.08720746 -0.124785446 0.19290826 0.28995368 0.422033 0.40551817 0.37031892 0.2513462 0.07098718 -0.0992786 -0.020392314 0.37877452 0.38773918 0.39032763 0.28851458 0.35614872 0.35476756 0.23513734 0.30292743 0.26501858 0.24211265 0.29571772 0.1854964 0.32693917 0.14398968 0.33163834 0.018169671 0.30958134 -0.19407175 0.25997582 0.31112617 0.016341023 0.15505217 0.19109744 0.6420622 0.684728 0.0695357 0.3020558 0.6337012 0.7053788 0.73660755 0.028624307 0.8099771 0.16651233 0.81095296 0.31647706 0.5777632 0.6468584 0.74001527 0.29277107 0.38815403 0.5289952 0.6095602 0.66112614 0.27114335 0.322948 0.23058438 -0.13835524 0.22994609 -0.1602433 0.2778281 0.2204496 0.16056436 0.16013336 0.335347 0.1774141 0.23151669 0.46797237 0.44093588 0.25796175 -0.11868989 -0.11939551 0.59098953 0.5031213 0.26828215 0.6122889 0.5623901 0.49598825 0.39827132 0.5399285 0.47522268 0.43736103 0.5362343 0.60872686 0.5981112 0.56717646 0.4694637 0.45279336 0.57383627 0.51592284 0.43943352 0.203527 0.23801954 0.36834794 0.17534143 0.49564856 0.46571547 0.08436434 0.13864292 0.3830341 0.40378428 0.51530844 0.33463645 0.13395149 0.31055972 0.46573135 0.28329253 0.32426742 0.43640324 0.43725014 0.21844465 0.30003923 0.0026392043 0.20607258 -0.07830219 -0.049375452 0.13434948 -0.247558 0.16407354 0.50273055 0.6081902 0.67693806 0.7093984 0.7230746 -0.06872023 0.792654 0.079656005 0.79836404 0.8184547 0.73378325 0.40305537 0.4793211 0.4943659 0.2734399 0.5819046 0.3871752 -0.11694052 -0.18942791 0.5729612 0.46079534 0.31650102 -0.14761423 -0.038621135 0.5021377 0.29103994 -0.061705753 0.3964258 -0.063368306 0.51081914 0.39157313 0.46174648 0.53329784 -0.04858993 0.06153249 0.09555123 0.5559907 0.48904815 0.56661785 0.58507305 0.62666315 0.32360876 0.20954774 -0.018530872 0.63802993 0.66838765 0.717746 0.746943 0.6464777 0.66909266 0.6547804 0.5962725 0.3465256 0.47058463 0.7909161 0.81063557 0.8503357 0.8436304 0.6780951 0.661922 0.613305 0.5129996 0.4822346 0.52639323 0.6189805 0.6144358 0.5809524 0.8020793 0.81986386 0.8455307 0.6941191 0.630026 0.58976793 0.5139772 0.50988686 0.46491855 0.46210074 0.66090626 0.23732688 0.4338116 0.5386425 0.5749427 0.5672204 0.46828726 0.5621363 0.092222 0.31322068 0.3491001 0.41445547 0.2759059 0.4301176 0.54235315 0.6256771 0.71916795 0.34860462 0.61145675 0.6576805 0.6365492 0.548712 0.031356372 0.14373565 0.0723448 0.12524433 0.36021453 0.39836687 0.37945336 -0.2292189 0.4282566 0.48783898 0.6354635 0.3854046 0.69146514 0.7037817 -0.20603454 0.72015905 0.010820214 0.2534492 0.64538 0.69615096 0.65801656 0.1983827 0.6835891 0.27977592 0.6830888 0.5908258 0.4311167 0.4347712 0.4995864 0.575252 -0.03731943 0.57085747 0.62957525 0.12601328 0.037588872 0.3980022 0.67237574 0.6675521 0.56103945 0.5971918 0.111093245 0.1475514 0.14636554 0.17686473 0.5331791 0.70953035 0.7189111 0.6485704 0.66829586 0.42015085 0.31704926 -0.12226313 0.39375943 0.51449 0.52515864 0.40658218 0.7121555 0.7739646 0.8321792 0.6721207 0.6817354 0.66750354 0.6195247 0.61743426 0.60775393 0.5617722 0.79618394 0.8214502 0.84313846 0.8453374 0.64529204 0.82660186 0.8325436 0.7691246 0.7779219 0.7050218 0.6802136 0.5515011 0.5471599 0.5271479 0.5709106 0.57561976 0.71116686 0.749828 0.39851204 0.48474354 0.46410444 0.50678664 0.40795094 0.6740834 0.38434273 0.0017625988 0.33990043 0.5347379 0.20988768 0.48254523 0.6717706 0.75251675 0.788412 0.30332443 0.7662647 0.68812287 0.7192919 0.33179632 0.41621226 0.32107824 0.1203507 0.24174291 0.18678363 0.03835794 0.4267176 -0.067197606 0.4473664 -0.1298331 0.44641936 0.44866282 0.08389069 0.08717611 0.39035574 0.22992384 0.4529574 0.16331701 0.5713354 0.38246056 0.11223666 0.20825204 0.6747335 0.65014005 0.0047849566 0.7051431 0.7259244 0.73422545 0.46393573 0.70795053 0.6379875 0.5894163 0.40358567 -0.09477565 0.63305545 0.638264 0.12604329 0.08825274 0.014303316 0.28257048 0.6620927 0.5452137 0.11320056 0.13380423 0.191528 0.20000932 0.3002249 0.6845418 0.6737131 0.6444067 0.20238629 0.28687096 0.45019913 0.545208 0.65051 0.7224494 0.7180548 0.6745181 0.64815897 0.55250776 0.480297 0.3758163 0.78192365 0.792636 0.8147966 0.7960753 0.62129885 0.57823884 0.8136372 0.8221642 0.7764319 0.79833496 0.7821492 0.7425313 0.5573731 0.5587822 0.57132125 0.7255294 0.7505876 0.5465353 0.54901826 0.56202203 0.56187165 0.50643647 0.5539877 0.559175 0.48053196 0.6782216 0.44339943 0.31258118 0.57674545 0.12611675 0.17549436 0.641371 0.7492371 0.80721897 0.81562364 0.44047463 0.79394186 0.6624738 0.74563354 0.47385064 0.4971944 0.4176975 0.27127993 0.04051228 0.33296347 0.1636611 0.43792135 0.4397344 0.4430614 -0.015775617 0.037621215 0.1352811 0.1972249 0.3898164 0.49527872 0.34679443 0.0836829 0.51650786 0.43949443 -0.04884482 0.088985085 0.66580534 0.6326751 -0.014393806 0.6823621 0.666787 0.7158922 0.61826074 0.4965585 0.6625172 0.39243123 0.53902984 0.60488224 0.6116294 -0.015202293 0.15241191 -0.08410324 -0.08767324 0.62441146 0.6467394 0.10733963 0.030928994 0.19183883 0.2000882 0.20757593 0.13724914 0.5845407 0.625788 0.6548343 0.13099225 0.56409675 0.6040494 0.6690826 0.66160244 0.6547328 0.64931 0.4602061 0.32274598 0.23486485 0.7401613 0.765113 0.7425519 0.72615355 0.6337087 0.56973314 0.5144554 0.4685074 0.7655482 0.7784774 0.78438914 0.7039835 0.7245462 0.7378506 0.7573961 0.7721103 0.5480628 0.54752916 0.46088627 0.68467844 0.6556127 0.652812 0.5053855 0.5349412 0.5295068 0.38850144 0.12453364 0.5112648 0.2583667 0.28355303 0.41273215 0.31938142 -0.1171067 0.03160183 0.08610962 -0.36133048 0.7154852 0.73155934 0.7690362 0.54077953 0.04282856 -0.014846532 -0.2587437 -0.13261026 0.64899445 0.5338081 0.30094472 0.37328714 0.4971256 0.23685974 0.24789435 0.2418321 0.03599161 0.07420245 0.41930878 0.31125307 0.047574826 0.507088 0.55273414 0.12260614 0.5152361 0.55863285 0.5728793 0.3909946 0.5620208 0.35911933 0.53194374 0.5650517 0.3179646 0.20558853 0.52687275 0.41064054 0.24223073 0.43327716 0.5841336 0.42237464 0.25515178 0.0681721 0.2236375 0.6222484 0.42533094 0.301714 0.4170258 0.53555095 0.090246335 -0.14741562 0.47806472 0.5461227 0.030298013 0.07466781 0.12038846 0.07250117 0.057130624 0.054166798 0.4391685 0.44854805 0.6113576 0.62362564 0.09060307 0.46630937 0.60268956 0.66587067 0.6279243 0.53595376 0.46067548 0.43387944 0.5193193 0.5123734 0.55738056 0.55532086 0.5413699 0.6884798 0.6944652 0.3527056 0.4796326 0.6192497 0.5939903 0.35169598 0.5265461 0.41445085 -0.17871529 0.54177725 0.5475131 0.42863214 0.3813899 0.2715218 -0.15870778 0.58076453 0.15460882 -0.17056882 -0.1258146 0.2431062 0.56263626 -0.3331678 0.5386528 0.18458809 0.314106 0.24010213 0.089940414 0.0032451376 -0.0007027313 0.08235954 0.1612789 0.69475234 0.6730326 0.6268715 0.5956789 0.36606753 0.60058063 0.59113187 0.339646 -0.021077741 0.006238588 0.5862379 0.58954775 0.3425526 0.58577794 0.31125772 0.598287 0.5664094 -0.06212335 -0.006028481 0.3048243 0.08240013 0.071363784 -0.27425238 0.072676435 0.013034143 0.08793916 0.06620155 0.28538686 0.16810657 -0.022709865 0.16709448 0.0191083 0.00804048 -0.12859483 0.070049465 0.14017154 0.16365601 0.12110585 0.12833759 0.114090115 0.064048156 0.2580157 0.05745276 0.4672746 0.44267187 0.3659581 0.6225353 0.5613998 0.59510803 0.5729219 0.4903352 0.4917174 0.39398208 0.3570357 0.538612 0.5093525 0.45996037 -0.10866883 0.08726593 0.56586796 0.52942145 0.41562703 0.31406263 -0.15024392 0.5824488 0.55968 0.10053562 -0.2393345 -0.20403422 -0.022727802 0.5115308 0.03802234 0.3083743 0.0083756745 0.12670556 0.22696787 -0.042624228 0.039485667 0.78720903 0.6977766 0.62992406 0.6519925 0.6317893 0.6197107 0.10570802 0.09460045 -0.18044665 0.41785565 0.6135611 0.60207486 -0.18160404 -0.05347062 -0.063464105 0.11124129 0.59895283 0.5907136 -0.1607345 -0.18820839 0.52318203 0.29338694 -0.28675106 0.4514776 0.3145869 0.14482273 0.09121876 0.22415127 0.27185565 0.26929355 0.35187006 0.2616083 0.24842286 0.56786835 0.51681423 0.13855565 0.10164441 0.07327519 -0.086647406 0.27279013 0.15207301 0.14259626 0.086309955 0.563553 0.20674162 0.1811994 0.27033353 0.21125777 0.16597448 0.32143575 0.44885656 0.28543785 0.6111554 0.6295519 0.6092616 0.59759915 0.58076507 0.49988452 0.5103865 0.3990423 0.31985494 0.2911833 0.3045745 0.2214287 0.20896222 0.107174434 0.0517103 0.17010935 0.14807306 0.5381839 0.48989412 -0.0815093 0.09780119 0.55295897 0.4995523 0.466994 0.18042812 0.1608351 -0.0033235103 -0.0040434003 0.4186268 -0.0052682236 0.27281442 0.15055075 0.0421063 0.21588518 0.053774282 0.16480333 0.13716164 0.79778945 0.834612 0.8075264 0.14597593 0.03505096 0.7118875 0.678752 0.6931129 0.6495507 0.29974133 -0.19204825 0.49752444 0.6589843 0.6251818 0.27883577 -0.17648318 0.28110412 0.56917185 0.6004614 -0.0879047 0.24285336 0.3031733 0.5254568 0.55334306 0.46366596 0.42614084 0.1457222 0.09337659 0.15458979 0.27373967 0.34837922 0.45846653 0.48860523 0.4434824 0.39007947 0.22536746 -0.085620716 -0.039594546 0.06083198 0.32796392 0.42575392 0.38701364 0.09530114 0.26854017 0.122117385 -0.058199182 0.2666438 0.31663322 0.40315247 0.3356331 0.59320545 0.3449362 0.612991 0.4