# vtk DataFile Version 2.0
Really cool data
ASCII
DATASET POLYDATA
POINTS 2712 float
-19.65193 13.800753 -29.43274
-19.7978 13.611116 -28.712294
-19.699148 13.629305 -27.569351
-19.549118 13.680504 -26.79576
-19.806208 15.261971 -34.735638
-19.558208 14.526974 -29.845238
-19.79052 14.662253 -29.453722
-19.830048 14.514469 -28.33844
-19.790977 14.600503 -27.53985
-19.602413 14.4331875 -26.620705
-19.53834 14.466597 -26.009424
-19.878742 15.819053 -35.291992
-20.139935 15.851337 -34.45832
-20.041672 15.7239 -33.54973
-19.970976 15.643811 -32.71902
-19.852583 16.091263 -31.834244
-19.756516 15.384598 -29.581808
-19.771736 15.2897625 -28.463541
-19.766434 15.195767 -27.987886
-19.6128 15.334206 -26.626402
-20.011951 16.432077 -35.237175
-20.322462 16.652243 -34.04545
-20.320656 16.284258 -33.501385
-20.343933 16.36996 -32.622105
-19.545227 15.979819 -29.947903
-19.696743 16.31666 -28.476381
-19.650698 16.014942 -27.64208
-19.793537 17.076399 -35.700615
-20.075489 17.31704 -35.158157
-20.245882 17.192211 -34.702015
-20.38242 17.549515 -33.350502
-19.733368 17.618692 -31.488832
-20.4072 18.765781 -34.111637
-20.441854 18.623697 -33.569008
-20.16445 18.518412 -32.661297
-19.882772 18.68095 -32.09322
-19.790926 19.158669 -35.24437
-20.30093 19.279743 -34.298134
-20.26858 19.591751 -33.75789
-19.989582 19.47278 -32.864304
-19.722828 18.890642 -32.07048
-19.898556 20.13193 -34.279675
-19.931017 20.02027 -33.30832
-19.605093 22.063665 -37.613094
-19.667776 22.440214 -37.933636
-19.798279 22.52118 -37.420223
-19.822937 22.839775 -36.694504
-19.641552 22.712671 -36.194458
-19.702616 23.15481 -37.978092
-19.79411 23.44804 -37.3682
-19.768505 23.417465 -36.65484
-19.601143 23.395847 -36.187008
-19.686758 23.78882 -37.26117
-18.595291 10.070393 -26.136591
-18.69988 9.941253 -25.503376
-18.600325 9.815498 -24.753738
-18.656649 10.396365 -26.12674
-18.803925 10.438938 -25.371143
-18.72346 10.430605 -24.748547
-18.845861 11.671943 -27.670317
-18.790108 11.256249 -26.664562
-18.838327 11.160327 -25.302786
-18.787247 12.8190365 -30.12245
-19.08769 12.71842 -29.435963
-19.510782 12.99556 -28.47674
-19.467117 12.927454 -27.954285
-19.19595 12.536504 -27.051634
-18.737566 12.213191 -25.689571
-19.321657 13.361457 -29.827147
-19.538176 13.485671 -29.39756
-19.37626 13.471704 -26.50357
-19.104382 13.720225 -25.856543
-19.289495 15.187181 -35.243755
-19.4112 15.024879 -34.60754
-19.174335 14.974407 -33.54223
-19.272078 15.064013 -32.66696
-18.981518 14.313854 -31.015442
-19.531143 14.253054 -30.070658
-19.34619 14.699192 -25.732157
-18.838182 14.559111 -25.08466
-19.259216 15.840012 -35.79742
-19.479517 15.509112 -35.530884
-19.600828 15.68097 -31.844269
-19.493929 15.759276 -26.604792
-19.291685 15.343721 -25.61773
-18.93673 15.4446535 -25.166489
-19.338377 16.370207 -35.962337
-19.512613 16.628683 -29.006624
-19.535166 16.531176 -28.673256
-19.391693 16.548616 -28.042347
-19.170427 16.205841 -26.625721
-18.992222 16.16026 -25.73244
-19.33831 17.71426 -36.023384
-19.546614 17.011486 -31.47684
-19.246372 16.931578 -28.57822
-18.778759 16.75261 -26.62414
-19.476223 18.412586 -31.518738
-18.85318 20.14423 -36.681023
-19.296871 19.230232 -31.825747
-18.931942 18.794186 -31.17498
-18.879406 20.98164 -37.840633
-19.254023 21.176922 -37.584724
-19.189545 20.911314 -36.807255
-19.361858 20.291498 -32.77761
-19.165482 19.992964 -32.192966
-18.799467 22.217403 -39.210766
-19.305073 21.847542 -38.2273
-19.262371 21.434998 -37.73965
-19.212317 21.407269 -35.86053
-19.099003 21.621113 -34.698067
-19.280293 21.131323 -33.750854
-18.930569 22.76209 -39.3315
-19.38411 22.451126 -38.42402
-19.353292 22.815897 -35.704296
-18.786901 22.560291 -34.40449
-18.636568 23.267776 -39.772053
-18.942806 23.284328 -39.294323
-19.357979 23.604311 -38.365456
-19.301237 23.64568 -35.92206
-18.811531 23.092588 -34.744423
-18.758205 24.036587 -39.08261
-18.9682 24.221176 -38.39692
-19.40621 24.126892 -37.38639
-19.205803 24.152498 -36.601955
-19.036058 23.957527 -35.960876
-18.845665 24.602427 -37.310303
-17.65705 6.2766657 -20.745955
-17.810902 6.666 -21.302595
-17.856483 6.670497 -20.612244
-17.804462 6.8591294 -20.033384
-17.825838 7.5700927 -21.87236
-17.9984 7.4810004 -21.180517
-18.02827 7.4826956 -20.388933
-17.810595 7.5668592 -19.8074
-17.92 8.80317 -25.484858
-17.936617 8.878233 -24.59268
-17.823408 8.194768 -21.392206
-17.787573 8.252915 -20.506067
-17.769547 8.071246 -19.86932
-18.16054 9.777248 -26.506798
-18.53243 9.516286 -25.51776
-18.31194 9.409473 -24.448858
-18.122076 11.040704 -27.814968
-18.298407 10.694204 -27.291777
-18.398323 10.691235 -26.596237
-18.558403 10.331255 -24.46358
-18.065536 10.473615 -23.841372
-18.396915 11.831835 -29.065414
-18.303354 11.611346 -28.627037
-18.298716 11.515774 -24.571688
-17.885426 11.237398 -24.11164
-17.937273 12.543625 -30.911184
-18.319117 12.498758 -30.343882
-18.398916 11.915626 -25.188763
-18.328949 14.103347 -25.017485
-18.599337 15.081451 -35.31687
-18.336761 14.852966 -33.30669
-18.712711 14.859079 -32.20042
-18.55281 14.576827 -31.474594
-18.482529 15.622078 -35.855606
-18.398668 15.375683 -24.83258
-18.5144 16.44215 -36.16844
-18.656788 16.26734 -25.333187
-18.353767 16.232481 -25.104824
-18.15937 17.401688 -29.753479
-18.573843 17.196375 -28.143911
-18.40997 17.046804 -27.55341
-18.41634 16.815268 -26.501278
-18.391146 16.688454 -25.712738
-18.110683 18.959967 -36.695374
-18.545145 18.966627 -36.35872
-18.426777 18.175976 -30.671316
-18.207212 20.087576 -37.20245
-18.465134 19.512579 -31.454096
-18.610521 18.881437 -31.092833
-18.421967 21.121143 -38.25611
-18.319786 20.364826 -32.17545
-18.096899 22.25787 -39.803062
-18.34528 22.07361 -39.37069
-18.487986 21.45969 -32.9737
-18.106377 22.79738 -40.107727
-18.610918 22.676655 -39.69274
-18.374575 22.389877 -33.85709
-17.88889 22.13768 -33.085407
-18.28409 23.485132 -40.022007
-18.267857 23.532505 -34.642464
-18.184292 22.964603 -34.021683
-18.12403 23.941757 -39.893375
-18.406729 24.165796 -39.407463
-18.524117 24.577143 -38.45032
-18.692644 24.50438 -36.45431
-18.25253 24.223763 -35.584377
-18.135382 23.790876 -34.83216
-17.909006 24.672945 -39.1691
-18.234007 24.801117 -38.42627
-18.17988 24.93373 -37.76714
-18.190746 24.744091 -36.81716
-16.72582 5.818815 -22.381632
-16.910612 5.6783843 -21.329195
-17.366756 6.029325 -20.579731
-17.303621 6.3062387 -20.007221
-16.696287 6.4336753 -23.197947
-17.560087 6.445644 -21.770496
-17.378733 6.7701006 -19.66698
-17.073416 6.9286013 -19.297323
-17.096529 8.253385 -25.705198
-17.29644 8.188824 -24.85617
-17.28855 7.8154726 -23.261574
-17.556892 7.605446 -19.423395
-17.284185 7.4997087 -19.281782
-17.276114 9.118753 -26.99918
-17.513922 8.972602 -26.48237
-17.586115 8.460034 -24.95977
-17.230835 8.803838 -22.73575
-17.457247 8.214346 -19.631845
-17.148626 8.105399 -19.299486
-17.006536 9.511827 -27.796858
-17.55288 9.665262 -27.276619
-17.36571 9.1308365 -21.510794
-17.395609 8.981147 -20.522642
-17.08386 8.919005 -19.970446
-17.115948 9.933312 -22.961985
-16.773756 10.088701 -21.64885
-17.368612 12.197358 -30.794
-17.29534 11.764687 -30.18451
-17.257383 11.281235 -23.590717
-17.703138 12.211662 -24.517979
-17.46784 15.203553 -35.29463
-17.493206 14.771658 -24.827242
-17.904873 15.798569 -35.883793
-17.05474 17.239435 -28.276083
-17.455881 17.10397 -27.472252
-17.622812 17.05538 -26.893326
-17.358952 16.80017 -25.819532
-17.181425 18.805906 -36.7526
-17.022038 18.557873 -30.561949
-16.705061 18.234377 -29.559345
-17.663334 19.384352 -37.09746
-17.44797 21.031166 -38.20494
-17.679377 22.248272 -39.91477
-17.66471 22.013912 -39.65286
-17.706335 21.518288 -32.385075
-17.059402 21.395956 -32.241714
-17.540718 22.715403 -40.185925
-16.912264 22.081034 -32.984222
-17.66928 23.404642 -40.25455
-17.612219 23.468023 -34.162205
-17.483755 24.041073 -39.9791
-17.496513 24.523409 -39.54336
-17.351583 24.47262 -35.55868
-17.57757 24.010914 -34.949703
-17.4036 23.698198 -34.307484
-17.544632 24.796936 -39.16251
-17.313122 25.178225 -38.40735
-17.457623 25.1877 -37.670055
-17.641808 24.7877 -36.309414
-17.596258 24.63434 -35.796265
-15.730634 1.0545422 -23.166756
-15.787652 1.0483829 -22.648354
-15.621715 1.0577857 -21.979837
-15.83203 1.5091648 -23.302176
-15.890607 1.4367657 -22.590496
-15.645535 2.3003561 -24.066189
-15.864337 2.418687 -23.166965
-15.798809 2.3607936 -22.828514
-15.780531 5.8591275 -23.772783
-15.9622 6.0648327 -23.63265
-16.44672 5.7532153 -20.462345
-16.372826 6.7950096 -19.315472
-16.022776 8.071058 -27.432482
-16.141504 8.084619 -26.562544
-16.01901 7.331511 -24.635342
-16.900549 7.4485226 -19.201511
-16.400503 8.996352 -27.980959
-16.280836 9.478893 -28.287008
-16.495974 9.382887 -19.953886
-16.655455 10.371866 -22.45646
-16.513514 9.98422 -20.53911
-15.61907 11.865054 -33.56166
-15.708959 12.100701 -32.215916
-16.051083 12.232777 -31.294878
-16.539 11.83719 -30.333773
-15.576854 11.959966 -22.407568
-16.684347 12.578902 -31.226004
-15.58589 13.002728 -22.518679
-15.508024 12.436272 -21.98327
-16.191597 13.580914 -31.925724
-16.558004 13.493502 -24.69726
-15.567063 13.598885 -23.359512
-15.807941 13.047669 -22.799673
-15.825043 13.187217 -21.142082
-15.803532 13.842974 -20.580776
-15.933595 14.56443 -22.114527
-15.931317 14.456404 -21.333004
-15.849959 14.529248 -20.632555
-15.654597 14.419207 -20.222513
-16.578255 15.598155 -35.04776
-15.693234 15.2513275 -21.46442
-15.71524 14.902307 -20.617277
-17.044714 16.990467 -35.93185
-16.733393 16.776508 -35.43434
-16.975328 16.180267 -25.18555
-16.38465 17.003891 -25.848795
-16.78393 19.069769 -36.8421
-16.384628 18.507704 -29.969206
-15.977669 17.868404 -27.045946
-15.726621 18.344898 -26.224264
-16.475828 19.454744 -37.047035
-15.695186 19.175531 -28.437399
-16.643852 20.450495 -37.801716
-16.995243 21.63064 -38.765812
-16.880167 22.772821 -39.95542
-16.790827 23.448788 -39.97465
-16.393547 23.823141 -39.585648
-16.991518 24.199026 -39.790512
-16.52974 24.304657 -39.447624
-16.664452 24.091812 -34.739136
-16.747208 23.665894 -34.205616
[...]
POINT_DATA 2712
SCALARS features_00 float 1
LOOKUP_TABLE default
0.36508268 0.38871443 0.37685603 0.3543413 0.6181077 0.34384164 0.38014823 0.41807795 0.4212839 0.42617312 0.45483854 0.61542475 0.58938134 0.518924 0.43819386 0.3840948 0.3710114 0.4259981 0.4305899 0.48586935 0.593833 0.5476145 0.5223131 0.47689223 0.29284704 0.4217894 0.44269332 0.5584027 0.5375101 0.539956 0.49321556 0.35103792 0.4540732 0.45261717 0.4093542 0.3550229 0.40362307 0.43704647 0.41959614 0.3857063 0.3421499 0.38485456 0.3804039 0.5673087 0.6124238 0.62700987 0.63575584 0.58764887 0.68699795 0.68581134 0.6451292 0.59602505 0.6810326 0.38590217 0.45166266 0.48943365 0.39014816 0.45998693 0.47107154 0.24388272 0.31362686 0.44318366 0.2999915 0.33160943 0.36066923 0.3428399 0.28408137 0.31671825 0.3228885 0.35839504 0.3215974 0.35022798 0.6369705 0.61708677 0.47851872 0.3374935 0.15632068 0.3184721 0.50070137 0.51856285 0.6221494 0.63102543 0.30389297 0.5058331 0.5624765 0.59466034 0.59782183 0.39161956 0.41096163 0.4294563 0.5101694 0.57697874 0.4756109 0.36324003 0.37871546 0.4750057 0.30406708 0.2797495 0.30205798 0.23253903 0.4162506 0.45910776 0.42599142 0.3319665 0.30937237 0.6583841 0.54482913 0.4886302 0.50600004 0.31039703 0.27658564 0.7322172 0.61933553 0.5148337 0.32392478 0.8404889 0.78002214 0.72582066 0.5500716 0.37602857 0.79762954 0.73334134 0.680961 0.61012995 0.53663003 0.6481962 0.674572 0.6566466 0.6978679 0.7022292 0.5731851 0.6702231 0.7088104 0.7013856 0.37707442 0.40028042 0.5967627 0.6726793 0.6918624 0.33095485 0.43950576 0.47041804 0.19112079 0.23382728 0.32082164 0.46714318 0.37297463 0.28786796 0.2476295 0.38257828 0.3330413 0.22216648 0.28679502 0.3642135 0.4219076 0.6316571 0.37825063 0.19495311 0.073235355 0.6125502 0.59798616 0.5709916 0.58662534 0.5883583 -0.05480943 0.33961317 0.37848356 0.4496084 0.51300406 0.20010102 0.22931376 0.042187862 0.25179344 0.21743894 0.18776141 0.45103797 0.25710696 0.762789 0.6697643 0.22320972 0.85941875 0.77751803 0.2680405 0.18863128 0.89792216 0.3541131 0.28682318 0.90323937 0.8431603 0.7377758 0.5606827 0.44792134 0.36878806 0.81476164 0.739306 0.6762235 0.5723599 0.44144183 0.5805193 0.64935815 0.6589045 0.21897711 0.5927551 0.6733465 0.64162624 0.18080738 0.2012229 0.29109573 0.684749 0.6649456 0.24791732 0.28754586 0.3039829 0.31583905 0.671041 0.64365816 0.20681486 0.23972298 0.43557686 0.5853641 0.6039242 0.13482475 0.2669724 0.15984538 0.20132944 0.15231863 0.2398598 0.55401707 0.47930837 0.5756211 0.061899547 0.2405524 0.30729252 0.3888197 0.1634781 -0.1694367 -0.35433573 0.18455684 0.3680668 0.79905987 0.71953154 0.16875127 0.11346288 0.9046554 0.11102565 0.94563633 0.2791701 0.90949154 0.8493923 0.3773744 0.34855634 0.28668505 0.81284404 0.76590663 0.692971 0.48847342 0.42512128 0.69973755 0.7092035 0.70701253 0.694202 0.7032416 0.6003013 0.65520144 0.6760899 -0.08908231 -0.024236567 0.54295266 0.55064607 0.044131085 0.024140447 -0.08608675 0.6264572 0.18319343 0.1337696 0.49975967 0.029568978 0.41616142 0.1464068 0.055673525 -0.07671222 0.022769801 0.039890938 0.05661808 0.2601431 0.2084479 0.06893326 -0.04079562 0.24076252 0.22233775 0.43751007 0.52533174 0.53739214 0.5486529 0.56156844 0.54059744 0.33402556 0.58484507 0.5762987 0.32609123 0.2869742 0.44074363 0.10595867 0.10613908 -0.35696572 -0.24614143 -0.050885387 0.053144302 -0.08745122 0.11558993 0.5018749 0.9156838 0.8971896 0.81308365 0.85720134 0.8127916 0.2758882 0.22956797 0.79859364 0.7747132 0.74442744 0.6196325 0.6831491 0.7082995 0.721646 0.657171 0.6862603 0.709613 0.7129342 0.5385998 0.6327475 0.6834905 0.68994355 0.64487976 0.66416764 0.62692165 0.40474814 0.52809006 0.65716136 0.5617815 0.59913635 0.60834044 0.51276046 0.3609514 0.28364414 0.40822792 0.62599444 0.51472175 0.56162685 0.4885092 0.46162844 0.5057171 0.26726967 0.11114215 0.020030316 -0.042305104 -0.03230118 0.44219214 0.53108716 0.5564646 0.6961054 0.6078359 0.28636128 0.2417085 0.109507926 -0.031031944 0.3123124 0.39529592 0.49624854 0.49380228 0.70974267 0.60056484 0.45196474 0.23765112 0.12565842 0.13849492 -0.06497559 -0.08589243 -0.12134812 -0.14860286 0.14803943 0.43912616 0.66071403 0.54305995 0.22278336 0.1351758 0.13412555 0.11356023 0.007621377 -0.03781777 -0.08292725 -0.18775254 0.21034403 0.18857066 0.19887139 0.16442105 0.08524902 0.047701035 0.055303358 0.012804508 -0.06402262 0.4527293 0.5046011 0.2769148 0.26701742 0.036863316 0.005816876 -0.029246693 0.3313431 0.3299837 0.16189077 0.015196121 0.0525146 0.012333646 0.02453731 0.21553671 0.29078722 0.29849383 0.24195266 0.09400083 -0.017281175 -0.22083499 0.09555179 0.3405413 0.11868438 0.47852957 -0.24604717 0.13782315 0.52250564 -0.5057988 -0.10822587 0.3673641 0.58027697 0.54389155 -0.0011780709 0.38048172 0.51784706 0.577826 -0.33812302 -0.03368475 0.11114363 0.010112379 0.10898178 0.23009193 0.24286827 0.24196172 0.08244458 0.20833008 0.3085565 0.28350973 0.28040195 0.096482694 0.091814324 0.20349188 0.27782592 0.39136672 0.34644914 0.3396622 0.8360128 -0.051576823 -0.10790345 0.75100255 0.6710904 -0.0019272491 0.75947577 0.17164616 0.77741534 0.7541156 0.7327322 0.6583503 0.70022774 0.7396362 0.7143044 0.58765215 0.64009607 0.7168006 0.66216344 0.6647377 0.6285621 0.4984714 0.5680376 0.6603715 0.62542355 0.6124616 0.6577281 0.6073066 0.33599988 0.5706973 0.5896903 0.46152812 0.31181866 -0.042316027 0.28453106 0.53339523 0.59200966 0.6081797 0.6343427 0.65934014 0.59027755 0.36084378 -0.19523883 0.5802188 0.605421 0.7494367 0.7068336 0.60256195 0.54534686 0.18718919 0.12529257 0.06547797 0.22690436 -0.30951953 -0.23926497 0.5387939 0.5262239 0.737132 0.093853794 0.11705647 0.09214034 -0.17620762 -0.23798119 0.44847554 0.668962 0.647344 0.5122747 0.32507616 0.20335305 0.07278947 0.08919483 0.20501263 0.5360626 0.26877707 0.030093629 0.026559703 0.2917108 0.2986682 0.25243983 -0.050915435 -0.01989511 0.36157075 0.45407575 0.48416233 0.27040964 -0.1610274 -0.19751608 -0.20379743 0.3588323 0.49108422 0.19559652 0.23691322 0.18968824 -0.29881275 0.1814592 0.055027172 0.30594683 0.16895016 -0.0009700507 -0.08514126 -0.14001018 0.3305756 -0.28962794 0.44306743 0.3666765 0.17776448 -0.15565407 0.3790014 0.49603102 -0.4385022 0.2721175 0.4243588 0.5009184 0.5587845 0.12699601 -0.082977176 0.01921881 -0.039041787 0.16300681 0.16049564 0.10218657 0.23129158 0.29018074 0.31042287 0.35962874 0.32501924 0.034957707 0.104057066 0.22819561 0.3403538 0.4200008 0.46093932 0.48218313 0.4762718 0.028607741 0.04454176 0.13458794 0.46874347 0.5597758 0.69879687 0.17988533 0.10505453 0.15339926 0.2721366 0.67573917 0.7013916 0.69073755 0.5370673 0.58487046 0.6778315 0.65732956 0.667151 0.6747556 0.62382245 0.6035058 0.61374795 0.59517235 0.5646299 0.4977487 0.51626253 0.52943194 0.50399107 0.5964999 0.61038935 0.3580396 0.38108075 0.37861386 0.3417217 0.44746912 0.6598525 0.66711617 0.69732547 0.6772725 0.526677 0.4046378 0.20745268 0.16310182 0.21452759 0.61500525 0.6311419 0.7279693 0.09454468 0.5677139 0.561994 0.65427077 0.7034466 0.43843937 0.6150035 0.65636754 0.31103933 0.50595474 0.4247952 -0.2530598 0.45233572 0.44934234 0.3140192 -0.36697578 0.4994529 0.5094876 0.06758005 0.5199598 0.5293776 0.47764507 0.50703174 0.20994574 0.16740097 0.27010983 0.263264 0.28450727 0.21597761 0.2926478 0.33274385 -0.07110397 -0.19651291 0.34608406 0.34777004 0.35537085 -0.29924917 0.44512045 0.3386544 0.4399578 0.494034 -0.17874919 0.047153443 0.12218176 0.008262396 -0.02476582 0.17337787 0.21781465 0.2976419 0.40806472 0.0300643 0.24111965 0.54134303 0.5951668 0.18892437 0.3805458 0.46781558 0.5559087 0.6307543 0.6593257 0.68552935 0.37552962 0.2467478 0.24235319 0.5234182 0.5927281 0.67806697 0.7350521 0.72604644 0.3708863 0.35709625 0.3437519 0.3417329 0.29936188 0.5633773 0.6203884 0.6507164 0.6350844 0.8104989 0.85614115 0.8358698 0.52629864 0.6511651 0.59847486 0.64941925 0.73133576 0.7553903 0.78729826 0.7761537 0.5323571 0.5473907 0.53213304 0.5171263 0.401146 0.57021296 0.5815492 0.57945687 0.6043707 0.42699063 0.51604307 0.5511453 0.38775888 0.4347005 0.6454656 0.6469708 0.63451976 0.62724924 0.58537567 0.4951291 0.06812617 -0.06870836 0.14781716 0.6303301 0.673645 0.55946624 0.5842693 0.47223783 0.5547856 0.4626502 0.37618434 0.41183513 0.46643394 0.18130958 0.5207894 0.13229902 0.021077313 0.021255992 0.5452079 0.03420446 0.510371 0.5323759 0.16230515 0.3616996 0.43521544 0.24744406 0.30032855 0.08878444 0.32717577 0.30883604 0.30518535 0.30311167 0.19109374 0.23776633 0.123869255 0.3192336 0.40958273 0.51678944 0.2218789 0.3682204 0.47824642 0.5440413 0.3610546 0.50674266 0.58711606 0.29699123 0.42990965 0.32674524 0.046691388 0.54400855 0.58051133 0.36280304 0.23267657 0.4221431 0.6898269 0.60555524 0.3376109 0.25210226 0.5560682 0.6307985 0.6870728 0.75519466 0.74936557 0.39516276 0.43979067 0.4211332 0.33085027 0.6891583 0.71836805 0.53892756 0.55388993 0.55023974 0.49552715 0.90992796 0.5179484 0.51177657 0.48608232 0.79531115 0.84973633 0.9001303 0.8650911 0.83282566 0.7152847 0.74474794 0.4768123 0.3329534 0.25081143 0.53584635 -0.018225156 -0.15470198 0.29382777 0.50796187 0.4215186 0.57498384 0.5835466 -0.09705636 0.5929626 0.35716283 0.5137823 0.41110352 0.39652282 0.34024823 0.44428366 0.4724683 0.23201624 0.4997602 0.5013365 0.53661066 0.02833647 0.5207931 0.1199315 0.37443203 0.4415763 0.47376728 0.16190273 0.26955545 0.14935067 0.3458642 0.38635132 0.2919245 0.30438596 -0.02793533 0.3047128 0.0782351 0.29172367 0.26872778 0.23272388 0.39096275 0.37316886 -0.15932962 0.52499735 0.10568091 0.59843856 0.23519516 0.6168008 0.2884294 0.49377245 0.58482695 0.3326537 0.55851173 0.36056912 0.17640595 0.521309 0.70499295 0.63580465 0.33975095 0.33491006 0.5675881 0.6326905 0.75847447 0.77232504 0.42643118 0.41054422 0.6378759 0.69294226 0.73512715 0.5526124 0.6022917 0.62630427 0.52293 0.5004451 0.80911064 0.88494754 0.9238908 0.8640766 0.80633855 0.22904842 0.19771287 0.6628685 0.7329262 0.70515084 0.218007 0.1691859 0.30900192 0.32333297 0.25292706 0.53116703 0.14849985 0.16902934 -0.05754764 0.086398214 0.22269458 0.41008466 0.50193506 0.057529807 0.15880342 0.45981172 0.49196348 0.21093495 0.4179799 0.3092019 0.32603619 0.34325588 0.3583142 0.42904615 0.26982772 0.46299362 0.2969429 0.23123695 0.48284185 0.15352362 0.48872375 0.16086802 0.427028 0.47349638 0.2110923 0.28500172 0.38992923 0.28316164 0.22799926 0.28817487 0.2726621 0.19958484 0.25963295 0.22958344 0.28629586 0.14898072 0.39717707 0.4684452 0.6153272 0.23501398 0.6222912 0.30148917 0.5154393 0.57774013 0.32211995 0.3381109 -0.052884072 0.5873021 0.36359704 0.033339 0.45493668 0.29378867 0.35725337 0.5457697 0.57942873 0.6625226 0.7185881 0.7629998 0.39084232 0.47802603 0.43057984 0.6663276 0.70999384 0.50181603 0.5354141 0.58401465 0.5703965 0.5074227 0.7710409 0.80649704 0.8352643 0.81660986 0.32866356 0.43724793 0.4783563 0.43457252 0.061254494 0.15813686 0.65825105 0.71869713 0.7103715 0.30275404 0.3597351 0.042337306 0.11840625 0.6049613 0.3602527 0.09589835 -0.05488666 0.106647074 0.47667214 0.1103354 -0.28479022 -0.05236922 0.05584172 0.03410929 0.36025673 0.44161302 0.39171472 0.3279025 0.17669564 0.32558197 0.45040578 0.2769815 0.4494456 0.4613621 0.35424656 0.41770157 0.41175842 0.373684 0.40973625 0.38234073 0.41264233 0.44263113 0.30068123 0.40102896 0.44927222 0.3211457 0.2662441 0.22512215 0.27534354 0.20843516 0.25037453 0.14945795 0.08985447 0.34493366 0.08878885 0.47544062 0.0025130212 0.5437752 0.5114385 0.5623778 0.26175192 0.47524545 0.3060794 0.3148741 0.044375405 0.31233525 0.45866862 0.5135499 0.3006465 0.28861254 0.23946846 -0.042584836 0.26582652 0.64335525 0.68882734 0.29342115 0.24656805 0.35091865 0.5393388 0.6403407 0.69467866 0.34301913 0.41951382 0.44230735 0.5322192 0.48279846 0.46054277 0.49071753 0.52707386 0.56374747 0.5318626 0.53091645 0.5223205 0.7437968 0.382851 0.48225713 0.52043605 0.51824236 0.48090267 0.20159324 0.21130832 0.67590606 0.6881007 0.7144747 0.20737961 0.31689522 0.4001462 0.071442425 0.08599187 0.105544955 0.30421233 0.59372056 0.5054112 0.30476126 -0.0585867 -0.018047154 0.040979568 0.48858857 0.06864793 -0.092440516 0.26901385 0.17944293 -0.0211863 0.21229441 0.25712714 0.4760473 0.44625443 0.14830679 0.48825794 0.49468198 0.47879666 0.27517068 0.36035016 0.44518876 0.36836433 0.38959092 0.43825218 0.2433694 0.34865728 0.40458915 0.3859501 0.23557627 0.33584335 0.26540715 0.228448 0.19078211 0.25733745 0.23921104 -0.050498903 0.23409083 0.20386973 0.25435254 0.14114039 0.2628911 0.12900834 0.35682708 0.20906425 -0.42412776 0.25852957 0.35081944 0.41866747 0.13070327 0.10258661 0.28287968 0.15314409 0.14359935 0.3141969 0.32424885 0.2422618 0.24693042 0.08845987 -0.15235677 0.13212892 0.24281791 0.27756226 0.61018187 0.5462929 0.38993222 0.4888022 0.5485517 0.3926369 0.49493676 0.5004716 0.49273232 0.49835742 0.5391717 0.528808 0.5228436 0.4903689 0.48748285 0.47254294 0.34211782 0.26990592 0.3892548 0.49944985 0.14235725 0.30527276 0.45658338 0.3870283 0.26633534 0.33947766 -0.03540571 0.34487092 0.13843244 0.4467268 0.42998233 0.10658797 0.47449636 0.4540695 0.0068595037 0.46599495 0.4365691 0.4462616 0.4339723 -0.021884643 -0.010630644 0.23937604 0.4089393 0.024757963 0.2922954 0.11637935 0.18709296 0.20696978 0.059629023 0.1802063 0.15741514 0.15573134 -0.010057604 0.16193557 0.14515536 0.27674854 0.19900472 0.28327405 0.26199752 -0.064204745 0.034432918 0.25698462 0.22414076 0.17757967 0.121079765 0.14243962 0.12451509 0.5068222 0.026104107 0.084534466 -0.058664314 0.06369837 0.57660526 0.38439825 0.30204526 0.43390346 0.5105837 0.63752383 0.6589582 0.51086867 0.4979778 0.45697832 0.4892457 0.45326436 0.4120952 0.3604233 0.38102266 0.4620914 0.53694844 0.33994126 0.20835611 0.5540433 0.5371355 0.4054981 0.40894008 0.38755333 0.1224102 0.4881023 0.31856734 0.040804975 0.41617423 0.3811735 0.2292574 0.44626027 0.43704128 0.43607208 0.4306374 -0.10142045 0.39401156 0.36132136 0.18654004 0.35787794 0.31384948 0.38354814 0.31195825 -0.32661545 0.39053863 0.3543557 0.3971021 0.35754067 -0.10319807 0.23734286 -0.027682347 0.13260372 0.12029483 0.16533923 0.13124213 0.09828237 0.3364565 0.03142591 0.33246735 0.29892063 0.15816084 0.16801465 0.21429583 0.10000045 0.14431569 0.3358323 0.2532694 0.22375971 0.47954488 0.51317394 0.26708966 0.21947113 0.27776167 0.1720524 0.2267678 0.48908848 0.6049967 0.60853344 0.5518645 0.4592575 0.4986766 0.59912056 0.38863197 0.29466644 0.3348836 0.47073537 0.5568086 0.44802666 0.4134583 0.17718415 0.27111837 0.21756312 0.13063473 -0.077097766 0.1715825 0.5607116 0.5636695 0.44576532 0.47329077 0.32512492 0.30113912 -0.02751828 0.119792625 0.54336894 0.3331425 0.38832414 0.4414201 0.2916667 0.13535735 0.36406475 0.14357096 0.22275196 0.42770565 0.39355624 0.3779676 0.408113 0.3909272 0.10446509 0.3793255 0.34014007 -0.1232523 -0.175364 0.3406403 0.24685046 0.21668367 0.11053637 0.2773576 0.2094018 0.07235515 0.27170938 0.30503982 0.21742915 -0.24507898 0.32135016 0.25859827 -0.1122962 0.08363361 0.2350365 0.09742431 0.12361741 0.2028109 0.20280874 0.19739905 0.20391664 0.16469161 0.32098937 0.09429235 0.15406565 0.3807904 0.36308694 0.35887152 -0.27047837 0.03496279 0.14696619 -0.08508192 0.19846237 0.25757158 0.31080484 0.27330562 0.30120826 0.32866207 0.30350858 0.24624577 0.1205844 0.13618794 0.41757828 0.61029226 0.62026703 0.40838647 0.48437116 0.44661644 0.40825933 0.1909897 0.1699293 0.115653925 -0.035398286 -0.18448168 -0.017284147 0.04496226 0.25624394 0.45876843 0.50964177 0.50814486 0.38664982 0.16884953 0.5379698 0.5462282 0.42208928 0.45062035 0.2549243 0.21297647 0.46767563 0.6472765 -0.06399168 0.6197909 0.6697434 -0.11876692 0.5551219 0.46344316 -0.017763175 -0.11638597 -0.23927861 0.42244384 0.17522435 0.13582672 0.47467986 0.25323334 -0.21762076 0.12111315 0.3348367 -0.031907007 0.3628636 0.36219275 0.33801788 0.23618773 0.29252172 0.22660464 0.07281921 0.20858851 0.20006119 0.29124522 0.31774363 0.035790723 0.34813482 0.25036144 0.09694818 0.10284656 0.11255208 -0.1551973 -0.071028784 0.027368069 0.12509039 0.2175942 0.25256073 -0.34693772 0.30158198 0.31911188 0.33242247 0.30108324 0.38884544 0.27535754 0.29112753 0.22556227 0.38316482 0.3640617 0.48856443 0.20749237 0.13616525 0.120883144 -0.07258821 -0.1250656 -0.14665094 0.52559984 0.4731585 0.37669253 -0.093906105 0.1874468 0.45065463 0.47214326 0.41852126 0.25271854 0.59324586 0.6478962 0.14270893 0.074559025 0.67050266 0.70608735 0.00060292333 0.70657575 0.67993724 0.6393857 0.18935895 0.023482949 -0.050198525 0.41573137 0.41369113 0.39405128 -0.24128398 0.13511854 0.46200106 0.43290108 0.013381287 0.03255301 0.47460347 0.17220618 0.4356828 0.46613035 0.39796048 0.3430562 0.22798868 0.25662985 0.1489631 0.011175036 0.29067874 0.20764738 -0.039839067 0.02243936 0.0395186 0.22314425 -0.046603024 0.106053755 0.080762655 0.10690741 -0.23483385 -0.06893274 0.071295545 0.14141211 0.13445722 0.15706283 0.23123449 0.20899913 -0.3875646 0.095819324 0.18725874 0.2534708 0.30069882 0.4220847 0.3093866 0.22924793 0.22876047 0.3356812 0.3963715 0.4241557 0.4217029 0.35813314 0.04697538 0.05255699 -0.025782581 0.07960884 0.20434889 0.24015406 0.48298994 0.07691565 0.10690781 0.38123667 0.22512795 0.18867834 0.24260044 0.19881916 0.3728655 0.5541841 0.67804575 0.70242953 0.35843578 0.19030175 0.69617754 0.71047986 0.39619705 0.69809675 0.37898144 0.58862114 0.6335668 0.33623558 0.5922264 0.14921196 0.15151523 0.21701914 0.36758286 0.51628727 0.420789 -0.003708288 0.5021424 0.5109974 -0.04091471 0.52427936 0.5550147 0.5531034 0.5289898 0.4453277 0.013425678 -0.022419259 0.07016134 0.121068075 -0.016960807 0.041691735 -0.08927667 0.058705505 0.13143401 0.21261871 0.20402035 -0.109565094 0.4111128 0.41014922 0.40299982 0.22222269 0.38759872 0.58452326 0.5883407 0.42484182 0.43963584 0.38100064 0.29544425 0.49667147 0.5809916 0.6348689 0.65099263 0.57445776 0.628237 0.6707101 0.18071386 0.24161041 0.29740125 0.27892917 0.3372108 0.37985122 0.03865099 0.12508208 0.32610375 0.43651444 -0.005148407 0.3062439 -0.22071043 0.30604067 0.3155816 0.52222896 -0.24032858 0.6071855 0.6717853 0.36405206 0.2475178 0.1109445 0.658926 0.42154962 0.41161728 0.5140935 0.5995294 0.6758052 0.41152316 0.519012 0.5693224 0.3269267 -0.2343638 0.097477235 0.27995783 0.5100094 0.55360425 0.10773798 -0.2545144 0.039896794 0.4762762 -0.19346942 0.5407322 0.46822602 -0.10987979 0.90882385 0.842929 0.556182 0.5312449 0.42670012 0.050742246 -0.23286974 0.8460276 0.8337174 0.7905718 0.10469461 0.2901863 0.6001087 0.8636318 0.7745987 0.7175438 0.26396084 -0.0676551 0.14119422 0.4771273 0.6800784 0.22957091 0.25764924 0.06042765 0.27902696 0.4775602 0.26107785 0.1088838 0.12866676 0.24663423 0.23757757 -0.03705291 0.19350885 0.2186865 0.15824632 0.080738 -0.10360857 -0.04166635 -0.04439534 0.03472921 0.20682126 0.015354838 0.38868713 0.3858829 0.14081953 0.013416742 0.060494438 0.56662565 0.590522 0.42295617 0.42078787 0.3230864 0.22161415 0.22026816 0.49946156 0.6751207 0.6621101 0.5793618 0.66024005 0.71499 0.71317065 0.561431 0.13764359 0.19878274 0.25967324 0.343398 0.37648657 0.40561455 0.43356538 -0.067481324 0.043617826 0.48462647 0.16670626 0.38173047 0.39835876 0.3861943 -0.22436948 -0.23428386 0.3888336 0.34117624 0.28709596 0.10665108 0.3732137 0.4918576 0.42012805 0.21400334 0.4213672 0.50824535 0.41284943 0.0962823 0.22974806 0.35549057 0.47510618 0.36256808 -0.19914012 -0.2205101 0.40738004 0.20840552 -0.009122156 -0.13678741 -0.18485276 0.83888483 0.82345796 0.7938857 0.18328619 -0.19795147 0.6063195 0.7589598 0.24779812 0.68309736 0.290345 0.60671955 0.29895476 0.32947743 0.46149918 0.50773644 0.33433723 0.28471273 0.35461256 0.30640373 0.28218332 0.15888937 0.24628751 0.19800286 0.12706989 0.04229923 0.36330006 0.32042906 0.14590666 0.11307941 0.32218617 0.3339896 0.14740454 0.571847 0.2655105 0.2956232 0.34367582 0.13213271 0.30115187 0.70349836 0.47513524 0.4606072 0.5125418 0.6265326 0.7607034 0.7492506 0.73496366 0.7854278 0.74896 0.81203514 0.6820972 0.65070283 0.5655