# vtk DataFile Version 2.0
Really cool data
ASCII
DATASET POLYDATA
POINTS 5870 float
-27.506107 2.5422492 0.019713305
-26.895763 1.1303515 -0.08098425
-26.98366 1.1533275 0.49963158
-26.851109 1.1592331 0.931091
-26.919685 2.0160236 -0.977725
-27.12465 1.6634469 -0.36135012
-27.235937 1.6567003 0.4788968
-26.985756 1.613395 1.0424184
-27.075388 2.670226 -1.165653
-27.430168 2.6279404 -0.33656263
-27.382898 2.3416042 0.40358683
-27.01447 2.5051887 1.0714755
-26.844503 3.6053946 -1.62386
-27.131395 3.4859502 -1.2946186
-27.397573 3.5536153 -0.5208149
-27.261349 3.2445805 0.3812216
-26.917068 3.2575164 0.97756034
-27.056646 4.0822134 -1.133916
-27.163155 4.143377 -0.48077273
-27.021025 3.997776 0.21092997
-26.733404 4.723512 -0.62316763
-26.525156 0.9405189 -0.1284631
-26.42476 0.777069 0.44168487
-26.376661 1.074137 1.1837342
-26.393162 1.9077816 -1.2209938
-26.51773 1.7303046 1.4217784
-25.93657 2.0137334 1.7389741
-26.237885 2.8400059 -1.8210082
-26.656553 2.6465557 -1.5341448
-26.591642 2.291225 1.4748949
-26.157623 2.181023 1.6768329
-26.54848 3.4260943 -1.7883313
-26.35323 3.2845163 1.3805603
-26.41796 4.1545696 -1.7509842
-26.571724 4.4625206 -1.4689792
-26.54148 4.4272013 0.526275
-26.21988 4.1240807 1.0266111
-26.410831 4.6544213 -1.1620133
-26.28067 5.078903 -0.6569017
-25.81818 5.2302237 0.3945549
-25.58286 6.1201277 -0.4539193
-24.774025 -6.839901 0.9655016
-24.8592 -6.780136 1.1775141
-24.76083 -6.195258 0.24090266
-24.941238 -6.345576 0.74016285
-24.98207 -6.3463635 1.4342321
-24.750267 -6.163843 2.0179996
-24.767279 -5.5266104 0.20241249
-24.961836 -5.587436 0.6775144
-25.08797 -5.634875 1.2900316
-24.867546 -5.608631 1.9527855
-24.636953 -5.0443873 0.152127
-24.892422 -4.690894 0.7188845
-24.935509 -4.718179 1.53081
-24.828247 -4.622954 1.9637454
-24.713587 -3.9434981 0.7717373
-24.77113 -3.7377098 1.3741323
-24.663889 -3.7019196 2.0304558
-24.639862 -1.4448774 1.1658379
-24.948092 -1.2786303 1.8299263
-24.861664 -1.3591242 2.441535
-25.12944 -0.8162197 1.9698898
-24.996017 -0.6719001 2.4653368
-24.650871 -0.4216819 2.9820461
-25.774317 1.25003 -0.84069014
-25.507305 1.018298 -0.52224505
-24.76417 0.48259342 2.429199
-25.668291 1.975508 -1.6097332
-24.973906 1.6452699 1.9235537
-25.282671 2.8527353 -2.2289665
-25.50063 2.360016 1.7950429
-25.15036 3.373584 -2.4218683
-25.07112 3.5321903 1.8641114
-24.839941 4.047008 -2.644071
-25.262743 4.4692054 -2.0462112
-25.5478 4.055469 1.5913594
-25.073517 3.9624012 1.8333219
-25.303444 5.8804493 -1.7289641
-24.86594 6.5298624 -2.3979454
-25.159906 6.58159 -1.7763834
-25.321527 6.7531753 -0.63454396
-25.22396 6.2496576 0.56886864
-24.929852 6.201671 1.0185745
-25.087967 7.349063 -2.4519544
-25.321434 7.6961384 -1.3923573
-24.920124 7.5820284 0.27493012
-25.043602 8.845998 -2.9453704
-25.169493 8.4077215 -2.5309253
-25.32618 8.542688 -1.522975
-25.150826 8.358098 -0.6950141
-24.779146 8.441951 0.03886059
-24.985205 9.55097 -3.050952
-25.23676 9.581081 -2.4087276
-25.189617 9.573564 -1.6359217
-24.868479 9.217181 -0.69840604
-24.852322 10.246486 -3.0249705
-25.092728 10.203138 -2.4772317
-24.96016 10.282259 -1.8015171
-24.763361 10.693019 -2.4701376
-24.713747 10.696362 -2.06939
-24.169176 -6.905261 0.13118002
-24.355871 -7.0563912 0.66084766
-24.40132 -7.1188684 1.3464206
-24.228405 -7.0139 1.9550736
-24.265287 -6.5387516 0.012322664
-24.552404 -6.4914694 2.0950105
-24.384432 -5.653052 -0.22178146
-24.372168 -5.4143724 2.5837367
-24.062948 -5.478382 2.7981346
-24.263237 -4.6540504 -0.14684328
-24.411217 -3.2906232 0.76567364
-24.176468 -3.579624 2.3419251
-23.753265 -1.9433566 -0.20320246
-24.242495 -1.960723 0.30393794
-24.09255 -2.155803 2.5306993
-24.285639 -1.898472 2.8426323
-23.789698 -1.3228352 -0.37438372
-24.393023 -1.4969684 0.4275904
-24.421186 -1.2036487 3.1484787
-24.216097 -0.28710803 -0.2616473
-24.40745 -0.46197045 3.2214959
-23.907248 -0.60206866 3.5645595
-24.704725 0.7336364 -0.6590698
-24.276949 0.14309591 3.1574497
-24.688993 2.1585937 -2.0920084
-24.268467 2.9757886 -2.6974607
-23.998865 2.143124 2.2809672
-24.366936 3.546119 -2.7899442
-24.651188 4.1049447 -2.612115
-24.292849 5.412863 -2.5033257
-23.715376 6.440026 2.184396
-24.480299 7.1746736 -2.9857612
-24.48479 7.6646943 0.7295634
-24.384085 8.38995 -3.4581125
-24.516905 8.569256 0.29559138
-24.081554 9.301895 -3.8477666
-24.630007 9.473103 -3.3917258
-24.505655 9.546785 -0.37670913
-24.164534 9.236233 0.09896603
-24.256344 10.046887 -3.6307862
-24.377234 10.433089 -3.292353
-24.602304 10.498001 -1.5151285
-24.277489 10.0555725 -0.7744657
-24.40125 10.685329 -3.0383244
-24.487324 10.835759 -2.415609
-24.299288 10.754561 -1.6939533
-22.653635 -8.855722 6.061721
-22.60668 -8.245433 -1.143946
-23.21548 -7.5904636 1.4817411
-22.625198 -8.26104 4.845997
-22.769232 -8.345698 5.573552
-22.717503 -8.299796 6.2146497
-22.754057 -7.3798833 -2.1980872
-22.719675 -7.5696063 -1.4607198
-23.558456 -7.0339236 0.09765899
-23.805086 -7.298766 1.8031856
-23.39278 -7.1107893 2.2651682
-22.730154 -7.5994077 5.54233
-22.584816 -7.174034 6.596386
-22.814693 -6.50596 -2.2009416
-22.973694 -6.6731405 -1.823523
-23.226522 -6.1896105 3.2922943
-22.535149 -6.8655014 5.7696104
-22.653996 -7.04474 6.387395
-22.612543 -4.8974514 -4.884435
-22.72821 -5.4375 -3.0571399
-23.26821 -5.45997 -1.0656486
-22.609842 -4.46181 -5.3893404
-22.67922 -4.5380197 -4.568255
-22.604227 -4.6134295 -3.2870133
-22.779968 -4.899207 -2.4643307
-23.17861 -4.932067 -1.0356996
-22.905546 -4.4468365 3.099005
-22.59611 -3.522666 -5.3175683
-22.634256 -3.6023114 -4.746725
-23.38382 -4.0099864 -0.3323415
-23.260576 -3.859076 2.886875
-23.555944 -2.4300058 -0.20611656
-23.473455 -2.077788 3.1530297
-23.626951 -1.4354886 3.5170436
-23.381529 -0.04562959 -0.8526778
-23.513361 -0.52333456 3.638527
-23.190012 0.29732794 -1.2514536
-23.543331 0.19566795 3.4754198
-23.082508 0.23427695 3.6315362
-23.619719 1.7101395 -2.1121018
-23.447884 1.2426829 2.7040908
-23.150337 2.4238262 -2.7620075
-23.42552 3.6667845 -3.0070665
-23.337603 3.1437764 2.0031772
-22.78756 5.086991 4.138127
-23.323654 5.652911 3.524151
-22.86589 5.6659904 4.2717514
-23.238283 6.4744596 3.573389
-22.953005 6.251181 4.097463
-22.74516 7.248382 -4.917424
-23.514887 7.7687707 -4.1413684
-23.480713 7.084186 1.8858199
-22.967329 7.276828 3.3896544
-22.876156 7.0531664 3.7322955
-23.131704 8.747498 -5.0428243
-23.423103 8.403731 1.3149037
-22.76756 7.824064 3.0398898
-22.892412 9.281737 -5.06944
-23.266964 9.392089 -4.454309
-23.304306 9.425335 0.373318
-23.063166 9.145289 0.9501972
-23.773972 10.067974 -3.820226
-23.868917 10.624524 -3.4173605
-23.266724 10.281347 -0.5696581
-23.73634 10.77656 -3.102385
-23.671566 11.018944 -2.4624424
-23.480982 11.009528 -1.8043224
-23.248877 10.734208 -1.1416426
-21.754423 -10.029178 -1.9974148
-21.689157 -10.40262 -1.420755
-21.715742 -10.350765 -0.6466378
-21.634676 -10.266865 0.0714686
-21.739027 -9.829741 4.8903527
-21.782791 -9.926831 6.549777
-21.740383 -9.957169 7.0183015
-22.05649 -9.145454 -2.3776305
-22.085964 -9.342192 -1.2721761
-21.934204 -9.754017 -0.8909631
-21.595114 -9.202976 0.56136036
-21.927668 -9.276655 4.352193
-22.486176 -9.194262 5.7606044
-22.3403 -9.169533 6.51104
-21.875864 -9.368187 7.1260123
-22.25299 -8.244599 -2.9925199
-22.381119 -8.421028 -2.3952353
-22.501545 -8.499959 -1.3349646
-22.148352 -8.3011 -0.1432006
-21.892824 -8.757037 3.0955865
-22.545752 -8.130353 6.643823
-22.12474 -8.268429 7.2947536
-21.758825 -8.308811 7.67071
-21.76693 -7.520937 -3.5805163
-22.388748 -7.493418 -3.0983367
-22.458351 -7.8671074 -2.713229
-22.384186 -7.7329106 7.043701
-21.749123 -7.40559 7.9071035
-21.879213 -6.3659124 -4.257309
-22.423002 -6.407864 4.346454
-22.357004 -6.898683 6.7201242
-22.167458 -6.6526027 7.3203006
-21.850964 -6.8271646 7.9037595
-22.317032 -4.9633036 -5.8737655
-22.265074 -5.215557 -5.4667087
-22.349869 -5.445025 -4.3834443
-22.463001 -5.461485 4.0520473
-22.086699 -5.772458 6.499215
-21.92239 -5.957672 7.200676
-21.77834 -4.042859 -6.5918646
-22.22359 -4.307847 -6.0789013
-22.460667 -4.752359 -5.6336827
-21.735388 -3.7895193 -6.5995216
-22.299961 -3.5835383 -6.028091
-22.49765 -3.3801622 -5.599502
-22.43961 -3.4329689 -3.7547987
-22.410368 -3.4118617 -2.2571006
-22.327944 -3.768332 -1.559818
-22.371866 -4.122754 3.309574
-22.047606 -2.8525133 -5.981743
-22.247324 -2.6852846 -5.548856
-22.212751 -2.4657602 -4.3859396
-22.247086 -3.0575595 -3.5514798
-21.977686 -2.090829 -2.2730362
-22.208954 -2.1338456 -1.5286751
-22.563871 -2.0245013 3.2541873
-21.932549 -1.990969 -2.757083
-22.216394 -1.1663661 -1.4447687
-22.420462 -1.4327967 3.7210827
-22.271456 -0.80887824 3.6668448
-22.383438 0.2191102 -1.7070928
-22.559645 0.068074584 3.5177536
-22.727589 1.5832887 -2.3943424
-22.294176 1.4650654 2.5211186
-22.848383 1.0845227 2.920813
-21.57706 3.0065553 -8.88494
-22.646626 2.9519343 2.0839162
-21.632402 3.6512592 -8.88547
-21.7212 3.5052223 -8.54208
-21.73886 3.5509145 -7.82104
-21.59018 3.9306278 -8.823631
-21.698883 3.9114175 -8.457385
-21.700777 4.0708284 -7.920825
-22.676361 4.148438 -3.1899061
-22.496927 4.9820204 4.2460623
-21.956968 5.869902 -4.274194
-22.451439 5.5220675 -3.5058131
-22.578163 5.4619403 4.4415603
-22.238302 5.6043477 4.6865363
-21.94072 6.740545 -5.3768654
-22.168697 6.314662 -4.653675
-22.47472 6.4438124 4.459407
-22.284103 6.0830827 4.7257004
-22.231678 7.874688 -5.8781843
-22.477259 7.461857 -5.392673
-22.255627 7.314524 4.144117
-22.194273 8.550741 -5.954168
-22.538464 8.230727 2.6936593
-22.228941 7.7102966 3.6991158
-21.773388 9.542222 -6.3890724
-22.266788 9.27255 1.3848041
-22.446562 8.759719 2.0051284
-21.85901 10.159741 -6.0429316
-22.005238 10.273387 -5.500784
-21.773035 10.476622 -4.795493
-22.292046 10.455026 -0.73281705
-21.70714 10.684274 -5.501504
-22.207148 10.63568 -2.9745333
-22.855902 11.043693 -2.1373742
-22.475176 10.836207 -1.2837226
-22.77129 10.672565 -1.0283818
-20.843374 -11.918717 -0.20333476
-20.904072 -12.005096 0.8048172
-20.966772 -10.848179 -1.9101605
[...]
POINT_DATA 5870
SCALARS features_00 float 1
LOOKUP_TABLE default
0.8733001 0.81760037 0.81757706 0.76757354 0.76722956 0.83767045 0.8263808 0.76329994 0.767967 0.87671983 0.8389002 0.7246506 0.64568037 0.725779 0.8055435 0.79949504 0.68072164 0.6843257 0.71010554 0.70868117 0.58979076 0.7791251 0.76594245 0.6514795 0.63372505 0.6454115 0.46368605 0.54670435 0.643535 0.6219317 0.5165452 0.58983934 0.5505575 0.5517172 0.57735217 0.5678518 0.5233175 0.55382437 0.47506702 0.3537348 0.227319 0.66515565 0.67686063 0.6020161 0.66574204 0.6958306 0.6754905 0.553609 0.6350259 0.6806068 0.6656331 0.4819926 0.5579907 0.6172168 0.5980151 0.46948737 0.51697856 0.47563976 0.33576268 0.4884924 0.5159176 0.483729 0.5104395 0.5123301 0.5399768 0.5000106 0.37331825 0.4532696 0.22573403 0.38853624 0.36761993 0.36543557 0.35268518 0.2894384 0.31463897 0.43325505 0.35169244 0.21979997 0.23439221 0.2837096 0.286968 0.16342343 0.10718003 0.35612008 0.4277841 0.26168332 0.5616102 0.5310594 0.5693009 0.43709195 0.35671514 0.64676595 0.71923065 0.69541657 0.52200276 0.7008696 0.7445063 0.74147075 0.75579596 0.757234 0.53327346 0.61376643 0.64255184 0.6365473 0.5276959 0.6614151 0.4554006 0.54782623 0.48327252 0.33543742 0.3092307 0.33419997 -0.0025335476 0.09174757 0.40828305 0.4698979 -0.02492103 0.15059808 0.5330674 -0.04729876 0.5187257 0.5226191 0.09498671 0.46560848 0.28614807 0.26293477 0.068443194 0.27097788 0.2698744 0.13145655 0.24518517 0.2482421 0.2000686 0.38633543 0.32586637 0.4448908 0.56860316 0.4875461 0.37693638 0.5823536 0.6773994 0.7146803 0.5849396 0.72088164 0.7546207 0.7222464 0.516901 0.2585414 0.425597 0.43323714 0.4745471 0.49250546 0.289642 0.23831677 0.40831077 0.584828 0.54257506 0.41987348 0.4540909 0.1571071 0.15523139 0.33763635 0.37097168 0.4353571 0.42541593 0.16977133 0.13611814 0.4765264 0.41156083 0.20746881 0.047491327 0.07194572 0.18028384 0.49748686 0.44625986 0.064652264 0.15977675 -0.045251913 0.42296752 0.51092243 -0.13484675 0.5084343 -0.15175238 0.4455009 0.40579143 0.103550255 0.22133844 0.17799938 0.2066059 -0.040064156 0.43982697 0.4361657 0.47752362 0.45321113 0.47882688 0.22822258 0.2762969 0.22607964 0.4159872 0.45263112 0.3300927 0.25453484 0.35527092 0.33189502 0.32331884 0.34179813 0.29567888 0.5088407 0.6415609 0.47456247 0.68882895 0.72383237 0.6681377 0.5677262 0.4133855 0.40240806 0.34461972 0.2503019 0.4199901 0.557748 0.5716386 0.39387757 0.36073083 0.34331024 0.13102853 0.31380022 0.51833653 0.5456761 0.56817114 0.34150487 0.362203 0.31133085 0.1460119 -0.005601052 0.49696696 0.51914334 0.5379003 0.24097274 0.28553307 0.32878217 0.48944545 0.5086243 0.15114495 0.1573644 0.4521347 0.4757181 0.49709243 0.44501972 0.41254866 0.34127146 0.06651876 0.39222455 0.47060227 0.4541853 0.4784781 0.46412745 0.4541903 0.4967175 0.50440943 0.24257663 -0.042646326 -0.1052738 0.027924143 0.46673876 0.4728461 0.3045426 0.15875587 -0.10718941 -0.2047992 0.35161063 -0.03977582 -0.21875218 0.40215224 0.391149 -0.24142475 0.35120124 -0.011436429 -0.046066243 0.1950871 0.5987581 -0.23205113 0.6208272 0.621169 0.6264674 0.62451804 0.63116956 0.6358241 0.037092086 0.43699592 -0.044582482 -0.119573385 0.47929212 0.49507505 0.17505586 0.048930667 0.4955037 0.50257623 0.36427158 0.28166986 0.47055566 0.41027355 0.30724224 0.41726375 0.49421823 0.2623372 0.26033688 0.50175965 0.48316646 0.44383094 0.3605571 0.48136932 0.48931944 0.59462404 0.4600013 0.47480333 0.288613 0.26652038 0.4124912 0.4045054 0.34463584 0.29628757 0.5354477 0.5515984 0.40035334 0.41567564 0.41442227 0.23847544 0.11417053 -0.079205364 0.071423754 0.33465612 0.52115023 0.54930365 0.57225674 0.5805142 0.387653 0.40590614 0.05031353 -0.06751036 0.5854883 0.59513164 0.28839523 0.36020088 0.10707889 0.5676695 0.5864799 0.20428927 0.51717395 0.2066698 0.07376423 0.52832294 0.3611874 0.34797162 0.48158574 0.51412374 0.43953875 0.42440987 -0.07737003 0.42503616 0.44495678 0.36745426 0.37098628 0.38644758 0.14099647 0.099297345 0.46573943 0.42342585 0.029604178 -0.18107563 0.47247082 0.43769103 0.4240327 0.35462165 -0.08286905 0.08685676 0.47624466 0.5066961 0.4333973 0.5026841 0.5661291 0.5028063 0.56789756 0.4520829 -0.24321502 -0.3546642 0.56077296 0.6029283 0.47870964 -0.24846637 -0.06392085 0.29663834 0.60516214 0.6229172 0.6397773 0.61351705 -0.12104367 0.41090646 0.47467497 0.6104711 0.5967182 0.023086268 -0.08296222 0.51752913 0.5320334 0.37385136 0.498434 0.52054834 0.4557371 0.334701 0.47372195 0.48421314 0.5093373 0.22430119 0.21063861 0.5137061 0.5184914 0.20076856 0.30431402 0.25485986 0.5125837 0.47980854 0.35126215 0.60969853 0.65847456 0.5698133 0.3893733 0.487979 0.43690646 0.4651994 0.28568318 0.32809618 0.2988766 0.3872084 0.3557703 0.4552733 0.51699704 0.5353515 0.353407 0.4016833 0.54899055 0.55121076 0.37789097 0.55572045 0.57930017 0.2678773 0.3019392 0.2665724 0.15881625 0.2678316 0.23287198 0.322971 0.5279649 0.6551894 0.6153128 0.5709993 0.31217515 0.43304774 0.35334182 0.55556065 0.65929604 0.6578787 0.63878334 0.56711674 0.2747785 0.11293795 0.23407996 0.5102087 0.6279273 0.64288276 0.69499207 0.62008154 0.21978441 0.12218055 0.30566937 0.2944049 0.17927277 0.49050528 0.60708296 0.6699174 0.2736838 0.229236 0.05972993 0.10582439 0.38600057 0.32862255 0.311764 0.25933298 0.2328308 -0.24865335 -0.028231565 0.43691763 0.39321846 0.36794567 0.32854435 0.3165449 0.28457516 0.06771342 -0.2796794 -0.24356103 -0.10902062 0.38165998 0.3854146 0.34824124 0.29272434 0.3575034 0.12735993 -0.08088051 -0.2263754 0.45841554 -0.43051618 -0.39884278 0.50354517 0.0952188 0.23191527 0.5187808 0.55622613 0.46182942 0.55999196 0.4915153 0.49973392 0.51046264 0.5338492 0.5201667 0.2830257 0.5347754 0.3360743 0.251505 0.47516704 0.34469694 0.060742415 0.028696284 0.16997057 0.13774848 0.50209767 0.36742923 0.1847039 0.5330956 0.41938996 0.770574 0.83189386 0.8194762 0.75637627 0.6744595 0.6785164 0.70740414 0.6991569 0.6641051 0.5750507 0.5703764 0.4637227 0.42758113 0.38223368 0.21095291 0.32426602 0.084846005 0.2508479 0.37843382 0.4601308 0.2088744 0.436247 0.51391953 -0.007805936 0.16549003 0.2900163 0.3175512 0.30946004 -0.12003917 0.48346174 0.28828102 0.30970517 0.5471155 0.636556 0.23637292 0.5097082 0.65054494 0.6686341 0.64439285 0.55536604 0.45177272 0.3400206 0.55766284 0.6855483 0.6743802 0.6618915 0.63425714 0.57443166 0.44344464 0.34624258 0.3429712 0.31862015 0.16666436 0.1277254 0.10822196 0.1825641 0.66070807 0.6426221 0.68058884 0.6460155 0.52669847 0.4506051 0.3428703 0.3005313 0.10966344 0.05199695 0.12419384 0.6395357 0.62652975 0.70777094 0.7161341 0.71843374 0.4906596 0.3073642 0.26990792 0.22577551 0.1759542 0.0726188 0.11540605 0.15389144 0.18748692 0.54889894 0.580081 0.72662604 0.7162919 0.6466583 0.5486095 0.24227421 0.24029855 0.20478335 0.06969858 0.007902017 0.69414765 0.59657663 0.46480945 0.31210348 -0.18066272 0.23784196 0.3223891 0.3349127 0.29599538 0.24503279 0.27942324 0.27678776 0.27803 0.23648342 0.28683668 0.37315714 -0.4585661 0.38493633 0.38385692 0.38127422 0.44805694 0.48423344 0.504369 -0.07964793 0.5358084 0.5207694 0.07517362 0.5262269 0.5353969 0.13393381 0.1294879 0.4295506 0.4926443 0.121190995 -0.08508943 -0.035835594 0.05910535 0.23794182 0.18678269 0.29861945 0.37464952 0.5983073 0.576653 0.62730706 0.65697944 0.6037611 0.86591554 0.84304416 0.8038945 0.8322712 0.8644316 0.84112537 0.7799177 0.75027514 0.66169924 0.6487331 0.4273426 0.23603976 0.16141888 0.110792875 0.045240484 0.21060567 0.010189988 0.36469865 0.30299002 0.2208682 -0.05751801 -0.07518132 0.32753754 0.57982135 0.55064535 0.2886779 0.31744173 0.30360138 0.22204131 -0.2184349 0.4063437 0.5581473 0.39585155 0.27521813 0.39446595 0.64762855 0.63120687 0.57270783 0.49071008 0.38433582 0.41298065 0.25401342 0.5596404 0.62850356 0.63061833 0.668349 0.40536654 0.3745221 0.32399526 0.2722591 0.17315418 0.21236175 0.22942825 0.14463268 0.020633116 0.6470345 0.70390415 0.12634954 0.10781339 0.15037605 0.09718491 0.018677639 -0.36419466 -0.26714325 0.609243 0.7032474 0.16902919 0.18148455 0.0005786419 -0.27217352 0.57019466 0.70205176 0.7118056 0.18181333 0.15714452 -0.45903352 0.5044964 0.6801599 0.6979259 0.23802048 0.23834741 0.21077847 0.101649 0.20649001 0.6842191 0.6654787 0.57777697 0.24014111 0.25360084 0.2644488 0.21715254 0.037403405 0.2746778 0.26633564 0.22836488 0.15718499 0.13761628 0.16074812 0.16020702 -0.2559002 -0.26788637 0.2593509 -0.2428875 0.43635902 -0.20105577 0.29560542 0.42380676 -0.23843665 0.07277572 0.31390744 -0.038546413 0.05178415 0.04669575 0.022984508 -0.17209028 0.028386578 0.07044786 0.092458695 -0.1494024 0.44603166 0.28966475 0.62852496 0.6112391 0.3411664 0.43649858 0.5607921 0.66244745 0.6369968 0.47006688 0.572001 0.60241246 0.64751405 0.6636177 0.62319434 0.83534825 0.83792675 0.8094552 0.80962527 0.76536715 0.8011551 0.6577246 0.66486835 0.7052679 0.46005678 0.11603131 -0.02240599 0.26446122 -0.1826489 0.25297362 0.2935252 0.56529427 0.5463259 0.28691408 0.29437375 0.269306 0.11703812 -0.15315239 -0.17410327 0.17620455 0.22585896 0.58600163 0.5808261 0.5481409 0.7190287 0.6985445 0.67591107 0.6009487 0.58599454 0.029051214 0.46110886 0.61318624 0.65395683 0.53452396 0.53681177 0.5828221 0.5866418 0.6269132 0.29535604 0.1587114 0.1426374 0.5758902 0.5475488 0.6212672 0.094931155 0.5154279 0.6410507 0.47964206 0.6585492 0.29153425 0.6569001 0.6631894 0.11253418 0.6170929 0.5587518 0.23128176 0.10490744 0.16613345 0.26958194 0.2763862 0.2809945 -0.018214256 0.10054517 0.14744142 0.17299254 -0.028088432 0.16113734 0.17078587 0.16726637 0.13833044 -0.053670134 0.059506424 0.18660504 0.20612296 0.209784 -0.09535152 -0.1620653 -0.1076302 -0.41583532 -0.1796739 0.12745667 0.29582912 0.29500055 0.31165728 0.22846219 0.37147975 0.16864252 -0.29927385 0.1176326 0.521695 0.4349386 0.36701468 0.104615495 -0.11223 0.06564224 0.559921 0.44184366 0.35277903 0.15993947 -0.15132406 -0.32054105 0.09455264 0.079660855 0.477939 0.32897884 0.24322012 0.078085855 0.009422839 0.15445597 0.1859242 0.12570012 0.0882494 0.5097264 0.089898035 0.13163999 0.2788954 0.26519838 0.57248497 0.32562083 0.3820836 0.6290425 0.6220588 0.3943524 0.43400523 0.4730075 0.562908 0.6515171 0.65635836 0.58172035 0.6424616 0.6484933 0.6623042 0.7865324 0.7193011 0.6951769 0.6953721 0.7746601 0.6928055 0.59465194 0.5757997 0.7435365 0.43468833 0.35432538 0.35930556 0.42664304 0.41820192 0.3944549 0.3783384 -0.25409093 0.32524604 0.53525144 0.4778888 0.24515037 0.26790673 0.23093429 0.24115796 0.7546767 0.7494564 0.53993964 0.53766716 0.3445813 0.03926503 0.7514161 0.7467133 0.7209491 0.692168 0.52413356 0.25823823 0.3949669 0.46832585 0.6387466 0.26814142 0.507732 0.5269263 0.5362034 0.5507195 0.15330428 0.516104 0.5172001 0.534204 0.48856574 0.58252263 0.4540133 0.6117865 0.2365554 0.3421976 0.61839825 0.08492319 0.12100889 0.57886076 0.17994577 0.33401564 0.33528203 0.32441196 -0.11353615 -0.31706384 0.17831293 0.19875623 0.39559233 0.1822281 0.20790333 -0.011695255 0.13764857 -0.18978915 0.19731177 0.23793449 0.060422033 0.07896441 -0.21178143 0.26033905 -0.15634243 0.48497093 0.43437302 0.33989608 -0.26579815 0.42932296 0.5045594 0.54368484 0.44895482 0.09622741 0.42190802 0.54928577 0.615893 0.6245071 0.59982014 0.61467946 0.55950403 0.0837929 0.616868 0.6410829 0.63478273 0.5906167 0.23274012 0.18598542 0.6411735 0.60045433 0.46888667 0.2666666 0.22842973 0.30679524 0.30864206 0.461591 0.34883177 0.3661107 0.55931735 0.5241484 0.41937658 0.656016 0.62822956 0.51622945 0.5857477 0.6381371 0.7089857 0.6985229 0.67924905 0.6278751 0.5900972 0.5164497 0.39897308 0.43246812 0.27122596 0.43170524 0.43491372 0.03972872 0.05355958 0.41475514 0.39567524 0.09568289 0.36042887 0.48491842 0.13597275 0.124534674 -0.009176318 0.29566103 0.76374555 0.40135866 0.453295 0.3427358 0.20471199 0.044783324 0.74926794 0.76615477 0.748599 0.72725284 0.25426954 0.34820044 0.4177225 0.59480083 0.66287494 0.6254209 0.10251817 0.39305353 0.46782327 0.49636638 -0.016787648 0.024940357 0.46728575 0.47278577 0.4653324 0.46248418 0.44015107 0.52700925 0.539901 0.46809524 0.24064414 0.27437043 0.4203611 0.3675342 0.28517598 0.2334583 0.23655242 0.43410963 0.41102773 0.03700477 -0.079835065 0.19494209 0.20319596 0.11213598 0.014680438 0.31619632 0.07942037 0.15568915 0.12040275 -0.26736015 -0.18712932 -0.15424924 0.4374985 0.3736391 0.36595947 0.40924388 -0.17709678 0.0030739903 0.2558994 0.5109333 0.46584362 0.60374135 0.33926076 0.58706546 0.6241232 0.6280997 0.36618352 0.47462773 0.51528573 0.5964463 0.644541 0.6268072 0.62641823 0.6423533 0.23561594 0.41431224 0.47619182 0.581689 0.63551223 0.6371201 0.59843695 0.40818834 0.55586326 0.4710216 0.28138736 0.10640341 0.09028126 0.33426338 0.35269368 0.34409657 0.30674314 0.30749908 0.34101927 0.36419764 0.49722543 0.45270437 0.38218525 0.4763397 0.6398294 0.5540653 0.6397333 0.7087388 0.7570939 0.7173369 0.6835571 0.19941384 0.15235361 0.085011825 0.32891792 0.4075649 0.14750363 0.16950151 0.3548376 0.40666008 0.10016893 0.103874125 0.35202643 0.33704805 -0.1273874 0.26918814 0.22348404 0.116747975 -0.022125993 0.20620228 0.12379289 0.7341849 0.7330375 0.7163074 0.1639983 0.21478564 0.02402898 0.05868881 0.62439275 0.68041265 0.6408541 0.54904485 0.038119543 0.09106505 0.29902124 0.50627357 -0.05367545 0.2399953 0.3605737 0.38296422 -0.10540657 0.11683867 0.27538645 0.23890877 0.26985276 0.21961984 0.25515056 0.536682 0.29281273 0.30648994 0.5375223 0.6066052 0.2906872 0.5492923 0.51755166 0.52538455 0.44726747 0.20305574 0.23314758 0.44056636 0.18335557 0.25625488 0.4939656 0.23078372 0.2474388 0.50707847 0.47918203 0.14444314 0.18533884 0.11744484 0.30483633 0.4620535 0.41285577 0.5721069 -0.031864405 -0.12045182 0.15485203 0.49726295 0.58921736 0.121472724 -0.052606516 0.17095348 0.2329767 0.577389 0.5353454 0.5833497 0.6026557 0.37373114 0.19130759 0.2660499 0.33787295 0.43520612 0.5615903 0.6147208 0.6064975 0.6113181 -0.20983084 0.14680979 0.46966237 0.47678804 0.46965933 0.3855775 0.47615346 0.4705136 0.19102298 0.15430805 0.32364184 0.3796693 0.38349116 0.5015976 0.47332233 0.55193114 0.63058615 0.68420994 0.6718198 0.22553691 0.1713355 0.11289633 -0.04401075 0.13977945 0.12756711 0.21455379 0.31047934 0.30576053 -0.21569008 -0.23090667 0.2657529 0.2616307 0.20213857 0.14672245 0.19753948 0.14804581 0.6006626 0.6027895 0.58086264 0.43841457 0.53119874 0.48937368 0.40816456 0.059871368 0.043928094 -0.0038808659 0.0044872686 0.21750416 0.24493928 0.021547087 -0.10226487 0.4558888 -0.0058625564 0.3756089 0.50391984 0.5210279 0.37685615 0.57330143 0.28352734 0.38012928 0.66613483 0.4175339 0.46369916 0.6879654 0.6558049 0.5134769 0.37218446 0.4476664 0.64743 0.63110507 0.60386807 0.529648 0.2875462 0.37861162 0.5447296 0.29111773 0.5767946 0.2734968 0.547192 0.4642287 0.46918336 0.2446957 0.332026 0.3293284 0.44301015 -0.06775583 0.42634967 0.4993158 -0.113510236 0.032261282 0.5397463 0.4924299 0.5317867 -0.12581831 0.112931594 0.2949413 0.4120092 0.1869919 0.22452664 0.30351165 0.4888308 0.5471927 0.5457901 0.47036833 -0.057771385 -0.20769906 0.28157717 0.39150292 0.46277404 -0.05189941 -0.027073093 0.35074896 0.111213006 0.10568073 0.06616855 0.24437293 0.27828133 0.26822942 0.26911148 0.2647176 0.3953715 0.35117164 0.4253822 0.44155544 0.34091076 0.24936187 0.23754542 0.22160625 0.12457062 0.12356189 0.04288007 0.0011265874 0.53695345 0.51261985 0.19492692 0.5206876 0.49559897 0.073014274 0.18199833 0.4364686 0.23641539 0.19959804 0.22965899 0.08300252 0.07806222 0.15081479 0.101219624 0.23505163 0.19989964 -0.033832155 0.52129203 0.50607485 0.23260194 0.20921656 0.58576703 0.38561434 0.49322248 0.6141198 0.5096426 0.57359415 0.6474563 0.32424408 0.5412829 0.61107814 0.7159668 0.49790245 0.60667044 0.7291566 0.7254096 0.72327936 0.65905035 0.5928559 0.5551672 0.7175846 0.6919691 0.57607025 0.43938366 0.6048902 0.2941441 0.31495506 0.60505545 0.6034461 0.27806216 0.29271975 0.60192865 0.4951797 0.2013079 0.14689967 -0.05874005 0.15701349 -0.09823331 0.2542086 -0.036916867 -0.047604106 -0.06555532 0.4022504 0.13184613 -0.09118572 0.0124335345 0.06379913 0.39801955 0.41734594 -0.2897356 -0.2937834 0.30536112 0.34937322 0.24701348 0.32198536 0.3142326 -0.06841077 -0.12710226 0.45758575 -0.09740894 -0.08228108 0.63683486 0.5623537 -0.01057747 0.6599052 0.62334335 0.5352769 0.14512682 0.2012257 0.1877107 0.29214916 0.27776262 0.76156473 0.26611078 0.26182362 0.26236972 0.13052362 0.08100854 0.17764406 0.17610794 0.5837163 0.7717178 0.73060215 0.630146 0.5951645 0.33522406 0.24839056 0.6909379 0.54746336 0.49644527 0.028700724 -0.12634918 0.22534394 0.0808724 -0.04298889 0.05453408 0.2884869 0.20465986 0.11330119 0.28458413 0.17181653 0.3155932 0.33446312 -0.008766107 0.63436973 0.6551527 0.6242676 0.3427634 0.103697084 0.25402448 0.5070616 0.6607069 0.6992779 0.6835432 0.6723428 0.3874355 0.52777934 0.5792153 0.71115625 0.7431246 0.7414595 0.32690626 0.71290207 0.75950634 0.77626467 0.75568753 0.714822 0.30383626 0.269476 0.7017116 0.75475943 0.76182353 0.74927545 0.65640897 0.5699181 0.63294643 0.64708287 0.6438937 0.5586169 0.25658992 0.53736866 0.3705392 -0.074990064 -0.1539822 0.1547865 -0.092697136 0.14154306 -0.09495428 -0.19365662 -0.25496092 -0.2069124 -0.1632196 0.21147723 0.3144107 0.05075671 -0.049986325 -0.013561774 0.1270222 0.24178912 0.16804475 -0.16545255 -0.18915121 0.30829737 0.34450504 0.47572172 0.55392575 -0.24467233 -0.072871275 0.4346273 0.52030253 0.6133208 0.60858524 0.6430356 0.6946691 -0.053731874 0.68380046 0.66091007 0.58860475 0.3654592 0.07214154 0.092410296 0.14413728 0.65102375 0.3585538 0.45135194 0.49255973 0.615072 0.82188374 0.8188789 0.7688799 0.7211175 0.28534573 0.29936385 0.27396756 0.06996654 0.23562641 0.6452151 0.8015666 0.62901616 0.5140976 0.6262374 0.69094193 0.73710936 0.48598728 0.50092113 0.06351311 0.24509214 0.11700491 0.1604611 0.09386932 0.34169695 0.34038988 0.28123963 0.11020743 0.15747789 0.37376648 0.28143382 0.38735116 0.2605052 0.40100282 0.41320625 0.19604962 0.3462365 0.45205274 0.47629362 0.39070386 0.38896716 0.4574381 0.50572413 0.5837142 0.27885014 0.6302434 0.68344307 0.14827791 0.16394028 0.7076225 0.045830652 0.66285145 0.27890074 0.12975511 0.57693774 0.6168359 0.5175983 0.10635299 0.37199152 0.53906035 0.4395063 0.077160284 -0.18615198 0.2564069 0.60268766 -0.16715059 0.57896006 0.65027845 -0.12494776 0.27474728 0.04835789 0.08485684 -0.130886 0.42724895 0.32931784 -0.06913359 -0.01703282 0.22202216 0.3605157 0.5921712 0.508916 0.5503262 -0.18973038 -0.33497408 -0.2300196 0.51344967 0.62602574 0.6617553 0.6397817 0.6577009 -0.021884933 0.70606804 0.015467331 0.7145245 0.6841908 0.56853366 0.36384618 0.05121059 0.46029377 0.5219223 0.62088144 0.7485633 0.743807 0.8236236 0.7966912 0.72511387 0.68558043 0.33476236 0.33382714 0.3164392 0.24047233 0.21773653 0.40783018 0.71311295 0.6889422 0.7851958 0.7998427 0.6119908 0.5958687 0.18834183 0.6366086 0.6853944 0.555346 0.30854297 0.31065008 0.42557287 0.4089502 0.31412688 0.3776925 0.35436714 0.21333787 0.15946777 0.41792464 0.40056193 0.34906727 0.16273938 -0.020704925 0.33031103 0.30189586 0.40153098 0.37440962 0.11272358 0.33036688 0.41241544 0.3863955 0.2545064 0.3746078 0.3399186 0.17194135 0.273683 0.45053804 0.5248668 0.2953486 0.15982689 0.2927157 0.4375574 0.52932507 0.5978576 0.6402094 0.13569537 0.08007234 0.5736358 0.60556686 0.6518298 -0.030303512 0.5231061 0.5934987 0.6246833 0.268256 0.5155688 0.33334276 0.2619549 0.39672852 0.6352381 0.6947158 0.40808076 0.3468632 0.6806788 0.7618165 0.74890184 0.7769792 0.3782302 0.7080575 0.7609008 -0.055952907 0.40135276 0.5953486 0.7106681 0.26200217 0.10036169 0.047698706 0.08258794 0.32793805 0.21996087 0.54709506 0.42648816 0.4132742 0.34150773 -0.10809963 -0.014731566 0.006836499 0.01701965 0.28319874 0.037006464 0.44056812 0.5835705 0.6188453 0.6084368 0.55983007 -0.23452815 -0.042084325 0.5808179 0.64662457 0.6536108 0.634177 0.6465337 0.0718804 0.6904089 0.48143995 0.14646323 0.24311638 0.71663135 0.122079164 0.11312014 0.30412152 0.