# vtk DataFile Version 2.0
Really cool data
ASCII
DATASET POLYDATA
POINTS 1420 float
-8.588917 4.6250324 9.875726
-8.559673 4.673866 10.39891
-8.590918 5.400345 9.684722
-8.58957 5.325531 10.406537
-7.8751836 3.2804644 9.734591
-7.8649993 3.3281012 9.970961
-7.636583 3.5020297 7.912718
-7.931518 3.6950796 8.610617
-8.344978 4.0165963 9.529893
-8.290834 3.9040005 10.235461
-8.160164 4.0587635 10.843141
-8.177895 4.598866 8.566833
-8.361375 4.244651 9.364742
-8.410353 4.2399735 10.510819
-8.184592 4.6327033 11.117604
-7.9735126 5.796185 8.257187
-8.295172 5.322554 8.7838545
-8.480192 5.4476295 9.307056
-8.48687 5.688703 10.6016655
-8.296082 5.342538 11.009365
-8.1662855 6.2005353 8.873432
-8.377457 6.478733 9.727455
-8.237517 6.526641 10.415453
-7.99241 6.477338 10.864932
-7.971824 7.116739 8.880586
-8.147589 7.1615276 9.569497
-7.8752246 7.3570986 10.452665
-7.7693553 7.2753205 10.73585
-7.8060093 7.7905874 9.590172
-6.7443447 -5.9246964 4.596447
-6.5727415 -6.24471 5.764474
-6.660652 -5.562829 4.1212344
-6.792074 -5.3540134 4.5723376
-6.871537 -5.2336874 5.4007325
-6.721902 -4.7926245 4.6507845
-6.76794 -4.768144 5.3703766
-6.726834 -4.9617543 5.8090715
-6.8927083 2.946376 7.036731
-7.183416 2.8535042 7.6067758
-7.190913 2.6461473 8.085344
-7.3553 2.8614094 9.364296
-7.443387 3.2650075 10.439231
-7.1081996 3.287835 10.737764
-6.971515 3.6564755 6.787868
-7.357773 3.4630048 7.3890405
-7.37717 3.8463604 11.090139
-7.132306 4.37543 6.93893
-7.49898 4.530976 11.396866
-7.404503 4.9407525 11.536672
-7.0049443 5.0697923 6.9234314
-7.3883324 5.5501986 7.4857593
-7.661978 5.3727984 11.461297
-7.493924 6.314984 11.155427
-7.1637774 7.2808547 7.9963136
-7.518837 7.4715075 8.519563
-7.691262 7.081195 10.861993
-6.8245034 8.002669 8.25139
-7.332681 7.908215 8.647257
-7.5279064 8.054719 9.737545
-7.478488 7.906173 10.244631
-5.7150807 -7.9366355 4.862528
-5.678397 -7.824285 6.6433773
-5.8845096 -6.8438067 3.9854307
-6.325621 -7.048914 4.95257
-6.2320232 -7.206488 5.4847956
-6.0511837 -7.159828 6.3602643
-5.7382836 -6.9973755 7.027736
-6.27425 -6.2557936 3.9518552
-6.4008856 -6.5655785 4.436055
-6.500527 -6.638884 5.469025
-6.2994595 -6.278644 6.42418
-5.9561286 -6.50853 7.026557
-5.890141 -5.5807242 3.2536244
-6.3374925 -5.495219 3.7088935
-6.523387 -5.3864536 6.1545815
-6.0220966 -5.743278 6.865424
-6.0331144 -5.031478 3.3550277
-6.321107 -4.802108 3.9085143
-6.56269 -4.429177 4.7503595
-6.1049614 -5.0826116 6.500709
-5.883821 -5.009876 6.72755
-5.9751687 -3.8833277 4.1460447
-6.2982755 -4.2450686 4.4973164
-5.939581 -3.7461455 5.694013
-5.8827076 1.9766722 7.5166135
-6.149448 2.268538 9.288514
-6.449715 2.6772754 6.9298406
-6.411869 2.6973677 10.136058
-6.4262395 3.7415302 6.33437
-6.532789 3.9544466 11.106461
-6.0915275 4.458196 6.1664224
-6.5950785 4.5921755 6.4918737
-6.721667 4.5978785 11.316342
-6.1975284 5.146176 6.380015
-6.4174666 5.4720654 6.5756674
-5.94986 6.0877905 6.6610527
-6.837152 7.4629498 10.929205
-6.648262 7.9579167 8.207329
-6.7407384 7.7424 10.805721
-6.1447983 11.333947 10.053263
-6.1968374 11.45265 10.163618
-6.0717063 11.403859 11.095564
-5.8465395 12.661835 9.939627
-6.174662 11.968128 10.373534
-6.020938 12.299958 11.192968
-5.770808 13.409092 9.965843
-5.9178505 13.401042 10.39816
-5.874504 13.421155 11.46335
-5.6561127 13.510143 11.748618
-5.7430887 14.232348 10.751877
-5.720263 14.199795 11.343549
-4.770134 -14.65113 5.2090964
-4.851292 -14.337459 4.830076
-4.9614825 -14.340146 5.4674726
-4.915809 -14.0683975 6.0602775
-4.7876773 -13.660555 4.2814207
-5.051243 -13.598738 4.831499
-5.1677175 -13.54858 5.434975
-4.9876423 -13.696581 6.0510254
-5.0535197 -12.127755 5.0934362
-5.0055113 -12.7570715 5.74231
-5.19802 -11.277808 5.7166452
-4.9751353 -11.41591 6.5250974
-5.2434072 -10.262073 5.747399
-4.9982963 -9.641701 6.8425164
-5.2376385 -7.357054 3.9544017
-5.452932 -6.9278183 7.3998184
-5.3867283 -6.201365 3.2050345
-5.3844433 -6.4994063 7.393454
-5.6174865 -5.6356397 3.1345625
-5.6424303 -5.7465067 7.1652846
-4.950794 -5.960851 7.5877075
-5.214733 -3.4635065 3.7984471
-5.502406 -3.8509102 6.2341456
-4.881997 -3.664826 6.7285295
-4.785762 -3.0931182 3.737113
-5.287508 1.6964179 7.628037
-5.6582093 1.8885691 9.377891
-5.564608 2.2832274 10.06529
-5.001027 2.7132096 6.3090086
-5.4902015 2.486735 6.642529
-5.795128 2.8412402 10.493728
-5.59224 3.504416 6.0171895
-5.580654 3.2726433 10.658094
-5.333348 4.265089 10.788203
-5.6257153 4.938442 6.206353
-6.0545735 5.229166 10.91693
-5.462184 6.492924 10.571344
-5.613246 6.2856755 10.675646
-5.7792315 6.722673 7.145721
-5.2821283 7.0155993 7.4076123
-5.7093744 7.779802 8.129549
-5.1299415 10.080606 9.921071
-5.441839 10.756806 11.247096
-5.283625 11.399639 9.025132
-5.670774 11.332108 11.567413
-5.3301983 12.139563 9.117147
-5.3774543 12.561704 11.854167
-5.479361 13.82787 9.811826
-5.447834 13.331109 11.913483
-5.194059 14.2415085 9.762755
-5.4344654 14.467355 11.37835
-5.225249 14.101088 11.919971
-5.1396117 14.845073 10.190148
-4.985483 14.984987 10.552707
-4.409787 -14.770062 4.913333
-4.249758 -14.899598 5.5825357
-4.097477 -14.774286 6.0308146
-4.240647 -14.352144 4.2397923
-4.482516 -14.557424 4.5841794
-4.4692893 -14.145976 6.393981
-4.3878837 -13.430055 3.8894463
-4.2097716 -12.580299 3.8143425
-4.3015847 -12.3825245 6.8130765
-3.7910273 -11.084066 8.3137665
-3.6591 -11.107776 9.673065
-4.356979 -10.1388035 4.299722
-4.2891397 -10.848601 7.5335283
-3.955759 -10.373704 9.349475
-3.7047353 -10.41326 9.793914
-4.3049645 -9.961523 4.545913
-4.38896 -9.363909 8.184571
-3.7889354 -9.283045 9.398693
-3.7178981 -9.649597 9.690802
-4.5069513 -7.300197 3.775817
-3.8999672 -7.5098023 8.620117
-4.0510206 -7.9174614 8.856446
-3.8351274 -7.043841 8.369331
-4.26943 -5.4227867 7.4279847
-4.4424634 -4.547472 2.9520807
-3.907538 -4.6949153 7.301493
-4.495528 -2.8718624 3.844838
-4.2919207 -2.5640447 5.287302
-4.2631087 -3.046408 6.5089226
-4.387525 1.0103557 8.124491
-4.3501368 2.0727718 6.8734393
-4.403552 1.9605958 10.071309
-4.1540933 2.5062263 6.43862
-4.5896316 2.3160148 10.341418
-4.7839684 3.4300377 10.78716
-4.3859606 4.4830065 6.000514
-4.220558 5.214812 10.368353
-4.5809917 6.0697913 6.5347576
-4.916663 6.2935786 10.039107
-4.744942 6.7691555 7.500311
-4.1363263 9.807554 10.535892
-4.6788445 9.977025 10.798111
-3.7292647 10.480953 8.115391
-4.3270693 10.652543 11.497565
-4.591213 10.881585 11.61508
-4.919338 11.304467 11.779412
-4.319459 12.718562 8.39081
-4.594504 12.070982 8.5295105
-4.570198 12.700492 12.162238
-4.3872447 13.73839 12.437451
-4.6278896 14.138904 9.1900215
-4.6418734 14.688515 9.553087
-4.076285 14.713586 9.4458275
-4.065806 15.494822 10.432051
-3.629675 15.830769 13.668063
-3.9492135 15.743206 10.958495
-3.600522 16.488049 12.769233
-3.5567346 16.543966 13.500856
-3.6151576 -14.956237 4.7464137
-3.8360763 -15.031741 5.3361826
-3.5207179 -14.789833 6.1584415
-3.6046338 -14.483274 4.059685
-3.1058471 -14.173462 6.883725
-3.0729592 -13.061078 7.4630947
-3.0931568 -12.441558 2.9611712
-3.0285668 -12.1680565 8.540355
-3.0004425 -11.91088 9.6281395
-2.9203122 -11.813757 9.896219
-3.3295798 -11.21255 9.963071
-3.6266587 -10.899499 3.389924
-3.251396 -10.565039 10.154939
-3.0535238 -9.950454 3.35514
-3.4924004 -9.773235 9.88202
-3.1095617 -8.243147 4.1006584
-3.4586177 -8.440554 9.503549
-3.1536021 -8.395879 9.670116
-3.6752222 -8.076322 9.184454
-3.8307767 -6.127146 3.203502
-3.163226 -5.290308 7.943024
-3.2694113 -4.6298666 2.9842937
-3.6052842 -4.8522873 7.6500807
-2.986599 -3.5226994 2.875517
-2.9885836 -2.3032598 3.3567674
-2.9114585 -0.86861 5.8671823
-2.757504 -0.28226498 9.665565
-2.6369457 0.044975415 6.4914913
-3.2982194 0.8717555 7.535639
-3.8029337 1.3907499 7.4226127
-3.2832975 2.5798202 10.361975
-3.5981932 3.3532326 6.1820483
-3.5870638 3.643186 10.70516
-3.2134066 4.47504 5.6934743
-3.5230758 4.1516123 10.726166
-3.1648107 5.5417423 5.3351774
-3.0719225 6.7968645 6.7315173
-3.0122788 9.826363 8.701393
-2.9404416 10.679943 7.3067193
-3.0748146 10.5918665 7.44439
-3.5474231 11.648927 11.749096
-2.6134408 12.775643 6.2641525
-3.0899568 13.151526 7.121316
-2.9773538 13.560842 7.7662487
-3.7061665 13.7611475 12.369423
-3.1370492 14.147434 13.264182
-2.9653378 13.908494 8.051952
-3.11754 14.1665 8.301305
-3.514834 15.368136 13.782688
-3.0789165 15.504481 14.437687
-3.3841443 16.73515 11.262177
-3.5115826 16.531239 13.4367075
-3.2313685 16.400305 14.187777
-3.0066395 17.15767 11.62803
-2.8885515 17.460867 12.909762
-3.1825688 17.108265 13.640051
-2.9647074 16.910582 14.081411
-2.7724104 -15.040984 5.346044
-2.8618555 -14.815967 6.147361
-2.757246 -14.613857 4.235724
-2.1866043 -13.8350315 7.131709
-2.7246046 -13.585252 7.422233
-2.1973736 -12.580821 9.042887
-1.593313 -12.090161 -1.6365429
-2.333041 -12.398475 9.233681
-2.3573723 -11.938325 10.025352
-1.7709892 -11.452914 -1.5529499
-2.6015198 -11.592675 2.5101228
-2.4741971 -11.35504 10.328533
-1.8582339 -10.643264 -1.601078
-2.436586 -10.8937235 10.422293
-1.5784136 -9.943462 -2.1305351
-1.7420504 -10.105227 -1.277353
-2.6145518 -9.608267 10.171684
-2.7588358 -9.067292 9.973066
-2.0912254 -7.744658 9.474265
-2.397835 -6.011221 3.1762042
-2.9849956 -5.749119 3.1187572
-2.0893297 -4.060263 2.503698
-2.1455657 -4.6293364 8.119551
-1.9735334 -3.715355 2.3416622
-2.5413501 -3.5386262 2.6130023
-1.9450514 -2.71358 2.328878
-2.5108516 -2.7386208 2.6208863
-2.2051609 -1.8593878 8.866175
-2.1619294 -1.3451129 3.2877316
-2.3671253 -1.601297 8.6019535
-2.1714444 -1.257896 9.72208
-1.7957901 -1.2517755 10.389722
-1.6828594 -0.5189259 4.0991745
-2.3262303 -0.6578181 10.028565
-2.23544 0.87408394 10.477369
-1.8050689 0.48124453 10.7701235
-2.1321628 2.8981547 5.86174
-2.2382278 2.5485902 10.442853
-2.6802611 3.4098957 5.5828705
-2.4304028 4.6960006 4.695703
-2.5238917 4.4540343 10.663722
-2.360372 5.242101 4.5535617
-1.9432051 6.1556773 4.0133333
-2.592774 6.1353292 4.5587926
-2.3110018 6.028338 9.341004
-2.0001676 7.1561637 4.196208
-1.5722435 7.28665 9.419831
-2.3929975 10.854988 6.7742476
[...]
POINT_DATA 1420
SCALARS features_00 float 1
LOOKUP_TABLE default
0.66631734 0.7123911 0.64359915 0.7018389 0.6555454 0.67049086 0.5389913 0.57831264 0.6432263 0.70417416 0.74343956 0.55481267 0.6255511 0.724825 0.76949483 0.5354527 0.57293653 0.6151384 0.70459545 0.746176 0.5947339 0.64735115 0.6722121 0.6789299 0.6468195 0.66087925 0.675297 0.6746357 0.67469335 0.6270677 0.5978823 0.6125073 0.63145226 0.65369 0.6392448 0.6575292 0.6396073 0.5459227 0.53724086 0.5478615 0.6036458 0.65397453 0.6160009 0.5183376 0.52957845 0.6941328 0.4806081 0.7552948 0.7676147 0.44799614 0.48211914 0.76753724 0.67191756 0.53295314 0.6299155 0.66687673 0.4927203 0.6191135 0.6689435 0.6746936 0.5326705 0.41061828 0.5882987 0.6096393 0.57405305 0.49156192 0.42774022 0.59644383 0.6144798 0.60697526 0.5175038 0.45407966 0.5791966 0.599563 0.5867622 0.4772684 0.5884898 0.60740316 0.6415452 0.53089595 0.48883784 0.6102873 0.6286839 0.6506431 0.47961783 0.4953379 0.5451191 0.49739498 0.49983427 0.5687778 0.4302784 0.4495422 0.63717157 0.4159413 0.42246437 0.4031406 0.66280854 0.4617091 0.66415954 0.71717966 0.716601 0.76584405 0.6250602 0.7074295 0.72821903 0.60773283 0.67554426 0.6939112 0.65098476 0.67401296 0.6999851 0.76648206 0.7522311 0.76375943 0.75458485 0.705269 0.7136041 0.7089323 0.71641874 0.514568 0.58005387 0.3736008 0.3155628 0.38110346 0.19748117 0.555456 0.35734737 0.5540764 0.3574046 0.5664625 0.41800144 0.27843297 0.5949224 0.5499011 0.45799643 0.55527383 0.37015894 0.44618446 0.408925 0.39238173 0.45924652 0.43744782 0.479325 0.41289544 0.35429117 0.39461818 0.46115094 0.39030293 0.40008143 0.40575033 0.3896248 0.4035621 0.7834587 0.68615735 0.5424889 0.69023097 0.5061602 0.60183847 0.5420199 0.6011361 0.4855544 0.67835164 0.607919 0.5009441 0.5158123 0.7604805 0.7670808 0.7596859 0.72658813 0.7487564 0.75289977 0.65668845 0.49470335 0.43073526 0.46276796 0.62102914 0.23336338 0.26546258 0.5093943 0.5720808 0.23599021 0.35360909 0.44577175 0.4935295 0.41404575 0.2838387 0.3284541 0.17461422 0.24827185 0.47709996 0.29706937 0.5084058 0.56465936 0.5056984 0.23841253 0.27420217 0.34495753 0.2562592 0.34279376 0.3077678 0.28498912 0.18991616 0.27833232 0.2599752 0.29704386 0.44560355 0.5653961 0.3982075 0.4994126 0.5461523 0.57771975 0.26777548 0.39475942 0.4585127 0.39185303 0.32793164 0.36508667 0.27200752 0.357727 0.5570474 0.33979514 0.46337983 0.54596186 0.7418601 0.75482565 0.7170587 0.72033566 0.55976194 0.35177666 0.32573193 0.5032713 0.6727258 0.701573 0.67413867 0.20933953 0.6242183 0.10815103 0.5201572 0.044457123 0.44359472 0.45315653 0.40793386 0.33370638 0.12549528 0.25007638 0.2293717 0.305066 0.34577447 -0.056300983 0.31988615 -0.18349548 0.04928577 0.19006135 0.2131031 0.21366201 0.1969291 0.20718263 0.17525809 0.2950772 0.07481855 0.34688112 0.290636 0.31801882 0.37332863 0.33636665 0.21221271 0.13857302 0.22705963 0.19378668 0.10947067 0.10333532 0.5173913 0.628502 0.28245133 0.5408762 0.61639756 0.33586186 0.46082586 0.53431463 0.59357953 0.69630706 0.6505 0.7207364 0.45533097 0.3794534 0.5681266 0.4347879 0.6124267 0.7216619 0.51907 0.124847636 0.7435301 0.5782217 0.73791254 0.6324049 0.5701885 0.5805478 0.50913405 0.44335434 0.20107152 0.2515173 0.31942302 0.072633475 0.3546541 0.32474962 0.42598143 0.36933845 0.24366528 0.45704833 0.2314357 0.2961811 0.38690928 0.47151268 0.35031095 0.3005301 0.40254164 0.066249415 0.12842216 0.13944638 0.3465165 0.09932953 0.40881023 0.5214939 0.44349748 -0.000993073 0.5228889 0.017494772 0.22846429 -0.02468142 0.36021972 0.07588318 0.28339994 0.3240829 0.05024104 0.5252911 0.6126658 0.67487586 0.7310307 0.22700584 0.30167753 0.45507398 0.7105893 0.29597244 0.36927843 0.3860262 0.47574413 0.5660312 0.5771539 0.41312003 0.44761658 0.5148599 0.32607275 0.41995808 0.496467 0.44221944 0.67108244 0.7168865 0.5790036 0.505747 0.20610534 0.72509193 0.67700607 0.6341902 -0.16846971 0.7174105 0.659622 0.65022373 0.6160853 0.5815979 0.55396533 0.5663786 0.43800876 0.22402948 0.034250125 0.43495888 0.4581712 0.48960587 0.56091 0.53307414 0.42441148 0.5090013 0.53983736 0.514536 0.4421872 0.015591025 0.27701148 0.48194823 0.38258415 0.0884173 0.54960096 0.5717745 0.027235841 0.5548275 -0.011690304 0.5231638 -0.12015482 -0.10834874 0.037925098 0.19651993 0.31505162 0.4188443 0.36000946 0.33993852 0.61942565 0.675792 0.004313212 0.67606163 0.7033601 0.021751747 0.7270504 0.7214672 0.10743814 0.670102 0.7069626 0.3425531 0.51392937 0.47370377 0.4822629 0.47472295 0.3717067 0.4435255 0.4740933 0.2802304 0.27936655 0.43236262 0.383024 0.07086601 0.5401645 0.6386752 0.687317 0.5954152 0.65083015 0.58906126 0.5919441 0.5534178 0.6321796 0.61179453 0.62859255 0.63088596 0.62638223 0.5063983 0.52533937 0.5575802 0.39198416 0.2770977 0.47965187 0.033007413 0.5096775 0.6014106 0.59081435 0.5811986 0.59437907 0.5749788 0.54906714 0.58253264 0.5807234 0.45407346 0.49081606 0.42164367 0.044202827 0.17274088 0.4778701 0.57241523 0.46244058 0.5937094 0.5973662 0.023518145 0.5744202 -0.014732756 0.04331392 0.46245027 -0.07888965 0.03056236 0.051919833 0.34579244 0.43008405 0.43863982 0.46311593 0.2759596 0.6188587 0.6708728 0.2891022 0.69758004 0.721905 0.7251842 0.5326973 0.039030083 0.08126007 0.6474426 0.69178843 0.53694534 0.43329933 0.33573034 0.2175267 0.2141779 0.28368405 0.35286838 0.5244155 0.2229579 0.4946139 0.34276617 0.40775794 0.48890418 0.47767818 0.3166955 0.3334732 0.26107234 0.03401225 0.26569173 0.061072428 0.3030399 0.521284 0.51301736 0.4509178 0.52431864 0.51401585 0.5368981 0.5586734 0.4255916 0.49564475 0.52604884 0.5484171 0.52757716 0.437492 0.34713072 -0.256962 0.16198663 0.5980249 0.43139368 0.6004076 0.6240319 0.5914531 0.6100904 0.595229 0.61230826 0.59631455 0.59751105 0.5585928 0.5936351 0.51129436 0.44696498 0.46098095 0.4415568 0.045649365 0.5951568 0.569916 0.57430476 0.54349434 0.5370058 0.4962948 0.38435143 0.43362924 0.43609518 0.24650598 0.24876049 0.61109173 0.5363203 0.50790596 0.70512354 0.55552655 0.54686964 0.7058975 0.57918155 0.61785924 0.6901374 0.59661573 0.5655202 0.39705098 0.25269753 0.56998384 0.533804 0.21400052 0.13773115 0.21477109 0.33554262 0.41012853 0.51003844 0.4917964 0.4858529 0.3368499 0.3429487 0.45101288 0.40300542 0.28795892 0.20498994 0.3207614 0.11995262 0.3900901 0.42659593 0.44889346 0.4849422 0.49087358 0.45449597 0.47733924 0.52065927 0.5802069 0.46059543 0.5609988 0.33598197 0.41909018 0.5820395 0.5838407 0.57984865 0.63437665 0.59043753 0.58040303 0.6530531 0.6570445 0.5877125 0.57114315 0.62126845 0.45346773 0.33043596 0.5998733 0.5365162 0.48022598 0.4947359 0.028598338 0.31659314 0.20176476 0.014301047 0.4325335 0.5062952 0.43142384 0.54178846 0.25744283 0.47759348 0.25159216 0.29774207 0.38859388 0.1813254 0.25779194 0.12217738 0.51525176 0.5298206 0.37219897 0.5390701 0.64830446 0.53706604 0.5856106 0.18971561 0.59909135 0.54279006 0.5005416 0.45026535 0.74161965 0.7590676 0.7570451 0.7119052 0.6247587 0.6945275 0.73747545 0.7202666 0.67649245 0.627974 0.6667498 0.6729163 0.47951007 0.6022959 0.3938436 0.4079062 0.4248297 0.32385492 0.4721762 0.48441422 0.32163763 0.47108692 0.4515329 0.41622794 0.39914858 0.35682237 0.5094685 0.23937833 0.039284036 0.2672816 0.33923852 0.4377594 0.4538326 0.4340444 0.56470734 0.43387765 0.335626 0.6110613 0.5791174 0.6623359 0.31900167 0.52901703 0.40614396 0.35416698 0.35351697 0.44529763 0.50746864 0.56479216 0.50123566 0.3463568 0.571393 0.6133657 0.6426046 0.5408368 0.44508553 0.39966694 0.33280125 0.6553909 0.5080672 0.46223372 0.27263921 0.34945294 0.6589308 0.31169525 0.62671167 0.44819045 0.01948087 0.2420094 0.22078717 0.16369559 0.15391015 0.3095896 0.30620003 0.3126619 0.29405326 0.29001614 0.27695543 0.026769578 0.16041414 0.17961295 0.25620422 0.1501354 0.13448215 0.46173078 0.39126176 -0.03799539 0.48698276 -0.07322327 0.5171375 -0.06335902 -0.03701978 0.4943406 0.5139893 0.49171233 0.36629707 0.7223265 0.75421405 0.7587369 0.72551274 0.6537522 0.6662521 0.6770338 0.6156705 0.61108077 0.4163387 0.48247796 0.408722 0.42764395 0.44860286 0.42606223 0.42734587 0.317465 0.4306121 0.44159266 0.35443622 0.25175172 0.37160835 0.15203984 0.45202696 0.48233527 0.4771523 0.3802472 0.28684878 0.13701186 0.45451835 0.3916713 0.34156257 0.4328746 0.38892412 0.5170411 0.3746123 0.34589007 0.6075441 0.55174094 0.22533405 0.67506325 0.5569185 0.060444355 0.1362881 0.10671018 0.083909824 0.32998517 0.37875724 0.4350199 0.21090773 0.22651818 0.552795 0.27029505 0.34233618 0.5788436 0.32911885 0.42459935 0.6011075 0.5142815 0.43954974 0.35295248 0.481381 0.5647074 0.623736 0.45474374 0.5146182 0.6166768 0.6371329 0.64935184 0.38547754 0.5550359 0.62699014 0.64090705 0.64913774 0.5201609 0.6107 0.21090528 0.3433624 0.2525836 0.24446248 0.32868886 0.31804794 0.30141193 0.3558859 0.3624724 0.3528507 0.3117905 0.17627142 0.3933265 0.35452545 0.40372077 0.20566553 0.43409854 0.3974646 0.74064994 0.7368406 0.27681875 0.20846517 0.60229516 0.627552 0.756581 0.67548066 0.748074 0.66461873 0.5691574 0.6604903 0.56401765 0.6376761 0.53774714 0.5492438 0.4505142 0.43018577 0.4349892 0.3944884 0.4311789 0.43787944 0.43481755 0.441709 0.17197566 -0.059605032 0.40768898 0.24609983 0.51729983 0.50474614 0.48897138 0.44426858 0.56470585 0.5603431 0.37175125 0.36684412 0.6234829 0.6336941 0.30200878 0.6928786 0.08789664 0.7424892 0.1095967 0.24205583 0.5185691 0.51746994 0.45514685 0.5927148 0.57417303 0.55214226 0.40038723 0.48075068 0.62340754 0.6058318 0.5916865 0.4226392 0.5271173 0.5795653 0.6435342 0.36246294 0.43553317 0.38195956 0.3261454 0.33531323 0.3199494 0.42322752 0.38288325 0.42753386 0.2882757 0.20463794 0.1769354 0.32657054 0.35347188 0.3792842 0.32057697 0.32252827 0.37470165 0.37210435 0.566388 0.5866705 0.45872423 0.617545 0.10404122 0.2208423 0.26132268 0.2861901 0.7288612 0.4894851 0.88651514 0.65008426 0.7043648 0.7662729 0.89233863 0.7400653 0.5003017 0.5776123 0.562953 0.53099215 0.50827384 0.4959082 0.46790528 0.65913475 0.43137968 0.24277002 0.39917952 0.19508538 0.3667035 0.3521704 0.42300278 0.22127917 0.43521082 0.0681361 0.44078094 0.45782682 0.47339624 0.4254636 0.5319429 0.40746084 0.6189512 0.6717813 0.704916 0.72532666 0.7331953 0.68464625 0.038711965 0.5957 0.3938082 0.40190834 0.36464643 0.3877179 0.3966995 0.4454484 0.31604052 0.36692086 0.30849007 0.24282143 0.29029253 0.3579203 0.24966398 0.41596702 0.4168079 0.40329784 0.36751938 0.37732112 0.2933851 0.31778133 0.25116283 0.14559712 0.49782228 0.35738176 0.33525676 0.30917555 0.50575197 0.5473745 0.64250946 0.5588739 0.6801051 0.65167296 0.62813246 0.5798804 0.43227202 0.34794396 0.61776906 0.8237402 0.66598856 0.8163469 0.8765938 0.7332973 0.7704983 0.4899967 0.4832543 0.5077878 0.4988559 0.5120292 0.61681616 0.49129862 0.105369724 0.17321354 0.39864588 0.13138196 0.34831345 0.17006962 0.008249797 0.44813216 0.0050845444 0.23946181 0.30387136 0.51257 0.6214013 0.5024388 0.6725291 0.7113126 0.7137104 0.6670824 0.33354127 0.2909624 0.42137808 0.42078882 0.3712569 0.38376135 0.3236276 0.36166614 0.33791775 0.3470094 0.25223273 0.5181647 0.551175 0.62074316 0.68110985 0.313421 0.6166406 0.20466052 0.08304033 0.5202821 0.16654377 0.09545249 0.2534513 0.35291097 0.35114688 0.34370747 -0.07974485 -0.14604351 0.19535604 0.3598427 -0.041161314 -0.026461214 -0.0006289347 0.080263704 0.6516012 0.11174823 0.1428537 0.7363235 0.7550876 0.73610336 0.5572516 0.575678 0.7116366 0.65214694 0.5703943 0.5975462 0.57836866 0.5015177 0.4102534 0.33227187 0.37113595 0.40282497 0.69364226 0.70906234 0.44708976 0.48182508 0.6477148 0.7977531 0.78309274 0.69766015 0.7359587 0.79104954 0.8324108 0.74681485 0.78675705 0.4835218 0.4875168 0.6015407 0.5875461 0.14336136 0.25090888 0.43859148 -0.0018327385 0.31896672 0.13363008 0.28479028 0.26890245 -0.03259487 0.38421252 0.44302478 0.5315782 0.40267017 0.32744393 0.40877488 0.46558544 0.45400488 0.41646767 0.5356663 0.55760026 0.6375016 0.73552215 0.5547949 0.7622409 0.48254228 0.75984466 0.71411556 0.7124473 0.66830075 0.37042013 0.38270718 0.45392644 0.5606007 0.64405656 0.2937467 0.40306666 0.49507874 0.46728078 0.35771775 0.31328142 0.7079276 0.62017334 0.47086027 0.10269748 0.16193062 0.7716099 0.18737616 0.34547603 0.7979095 0.3664099 0.72569203 0.6738955 0.58762485 0.5158564 0.41350728 0.71271884 0.6857424 0.55321366 0.573523 0.59605813 0.7323407 0.7598268 0.76613456 0.756464 0.78428763 0.7936815 0.49679834 0.17507811 0.14880666 0.12853774 0.27048105 0.24102183 0.3386598 0.04411754 0.37070766 0.24092868 0.22936733 0.36615527 0.34785888 0.41757008 0.46545687 0.40166914 0.39825255 0.6344545 0.6753286 0.74006844 0.6138553 0.65563893 0.7272546 0.82170385 0.84311324 0.62480366 0.6782272 0.8007914 0.89158934 0.8363321 0.56395125 0.59849143 0.7716902 0.8189517 0.76873755 0.4868217 0.40419924 0.706411 0.64081097 0.5895132 0.47906756 0.4490666 0.76718664 0.70896703 0.52965117 0.778178 0.3619109 0.74618804 0.69010794 0.6305321 0.46119344 0.44298178 0.5822788 0.5780961 0.6632406 0.69822913 0.6921928 0.56820285 0.626083 0.64019847 0.65440786 0.6943241 0.7190393 0.18125024 0.2691313 0.48613894 0.45257077 0.28090084 0.37610024 0.5203681 0.19319478 0.6266808 0.4243365 0.4227271 0.41069794 0.4754846 0.40956098 0.47984725 0.4905491 0.43385813 0.4219687 0.61796105 0.5365372 0.5435636 0.72311443 0.6373951 0.592526 0.5994501 0.612159 0.57668054 0.7662333 0.7435546 0.70511955 0.6702119 0.6680015 0.61085343 0.6880096 0.70289636 0.74443877 0.6948308 0.73323977 0.724403 0.718591 0.70218897 0.70541525 0.39794347 0.60371256 0.58388835 0.5689617 0.36753595 0.4990648 0.5290713 0.5376852 0.17378765 0.16586891 0.53438336 0.47870353 0.35249937 0.22332546 0.40201548 0.7261634 0.52086353 0.5296054 0.56607646 0.56384635 0.60217315 0.5767987 0.5813354 0.4829986 0.4561892 0.522506 0.5230424 0.54670703 0.50579804 0.66926026 0.67850536 0.6984731 0.717512 0.74119794 0.74349797 0.36999643 0.44158405 0.6616764 0.638803 0.4005199 0.61874247 0.50749063 0.5905424 0.67242396 0.5886345 0.6121948 0.6034399 0.57888466 0.28804794 0.5557234 0.54198676 0.5893322 0.7871969 0.7845249 0.6222346 0.5566875 0.5938596 0.58486366 0.5874796 0.61326635 0.63158035 0.6220256 0.669068 0.5621889 0.5851713 0.575662 0.55541015 0.56699044 0.56032217 0.5391881 0.6712486 0.69850266 0.69868445 0.5035605 0.7401315 0.7170563 0.6168672 0.6939713 0.6960745 0.62907755 0.63673484 0.68163955 0.6281848 0.61474967 0.60197437 0.57430005 0.952616 0.6688719 0.61025435 0.6153292 0.63759863 0.62473416 0.61667943 0.61960936 0.7051487 0.6572468 0.6534536 0.6794239 0.70075655 0.61053574 0.6367978 0.62657267 0.66864645 0.7432096 0.7387081 0.6130152 0.7520958 0.76329863 0.5812328 0.77212226 0.7589621 0.6127356 0.6050085 0.744823 0.7390785 0.6276209 0.625337 0.76799643 0.74226755 0.63943446 0.64725894 0.6383109 0.6334045 0.6415367 0.61639214 0.64175534 0.76888967 0.6164339 0.67398417 0.7347335 0.64095664 0.7117794 0.6821536 0.76600623 0.78112036 0.56926256 0.76830685 0.7854342 0.59866077 0.5962739 0.50148916 0.5225309 0.6818867 0.755357 0.77862537 0.6295213 0.61518574 0.5601343 0.6336269 0.58943796 0.7244219 0.75830936
SCALARS features_01 float 1
LOOKUP_TABLE default