# vtk DataFile Version 2.0
Really cool data
ASCII
DATASET POLYDATA
POINTS 8310 float
36.390873 111.23952 84.26461
36.167774 111.955894 83.251686
36.154713 111.83557 83.61776
36.107445 111.843544 84.338196
36.202988 111.978165 84.79549
36.15646 112.56479 83.189064
35.881218 112.564 83.70775
35.86667 112.50539 84.33765
36.182514 112.69173 85.08071
36.18295 113.12248 83.25592
35.993027 113.27665 83.73973
35.991352 113.41435 84.44075
36.186584 113.22953 85.04319
36.234665 113.837456 83.772545
36.26086 113.98831 84.395805
37.23194 110.053566 83.68119
37.189228 110.004166 84.15856
37.14122 110.71992 83.113266
36.8235 110.72198 83.668465
36.91639 110.53023 84.42149
37.279068 110.55952 85.140884
36.610683 111.762245 83.08734
36.42531 111.43609 84.40075
36.64688 111.70207 85.21246
37.010464 111.938385 85.631226
36.545975 112.61117 82.94576
36.512253 112.60805 85.35511
36.888428 112.83596 85.72358
36.755764 113.31856 83.02869
36.428665 113.63047 83.36412
36.632607 113.5396 85.44064
36.885258 113.28543 85.651436
36.865875 113.86896 83.26888
36.569565 114.09649 83.712006
36.511337 114.30997 84.51063
36.827225 114.34347 85.27588
37.324978 117.20085 88.84223
37.36813 117.00174 89.08275
37.395992 117.52324 88.178474
37.15225 117.67024 88.893486
37.24816 117.58577 89.414894
37.375305 117.77793 89.87441
37.367786 118.00324 88.10592
37.20043 118.28517 88.659836
37.199635 118.3346 89.358505
37.33509 118.297 89.87097
37.42293 118.93997 88.838425
37.314747 118.86557 89.32633
37.884697 109.378555 83.9195
38.18767 109.16502 84.425674
37.635372 110.02313 83.236244
37.66543 109.65118 83.7923
37.638138 109.67915 84.516
37.856827 109.742744 85.14254
37.55141 110.589066 82.91226
37.713623 110.3392 85.470024
37.81014 110.73713 85.7991
37.62258 111.72133 82.73253
38.08663 111.43919 86.160736
37.50945 112.60146 82.706535
37.678566 112.580215 86.09815
37.526684 113.46212 82.98323
37.818058 113.37985 86.07773
37.509308 114.007355 83.26413
37.26647 114.2476 83.49147
38.3705 114.6559 87.03807
37.600216 114.83065 84.666756
37.939213 115.38039 86.60194
38.13908 115.336716 87.75674
37.85322 116.0514 88.31206
38.2053 116.13937 89.19482
38.411407 116.81261 86.14145
37.922283 116.58474 87.51976
37.786266 116.38885 88.32409
37.618538 116.925285 89.56005
37.953705 116.971886 90.10561
37.62274 117.57417 87.76761
37.465324 117.37459 89.76811
37.74049 117.72086 90.37803
38.102673 117.96238 90.984314
38.453876 118.71521 83.7729
38.15577 118.36364 86.98854
37.637135 118.43542 87.838425
37.50045 118.61556 88.22264
37.57697 118.32376 90.32842
38.00566 118.27528 90.9789
38.388386 119.10837 84.19772
37.956207 119.17245 87.83893
37.66684 119.18407 88.62764
37.669968 119.38184 89.4581
37.727493 119.244576 90.294044
38.019104 119.14442 91.00004
38.19117 119.97192 88.884796
37.97771 120.001595 89.360954
38.12775 120.172 90.448395
38.37145 122.75862 92.66411
38.4189 122.838745 93.011215
38.392242 123.30528 91.826706
38.348152 123.49983 92.550705
38.415718 123.416885 93.09699
38.421543 124.12317 91.98744
38.411602 124.292206 92.48575
38.436867 124.303955 92.922424
38.488365 124.95269 92.16606
38.61841 109.28786 83.15443
38.779705 108.87357 83.734116
38.669674 108.715164 84.47077
38.825977 109.006714 85.32073
38.664288 109.57178 83.01658
38.443184 109.56088 85.57047
38.47958 109.94854 85.95065
39.00013 110.56069 82.377525
38.601864 110.52438 82.608315
38.92118 110.3856 86.33529
38.9382 111.753395 86.4179
38.073788 112.73227 82.71026
38.95431 112.76673 86.78686
38.469753 113.199745 82.906815
38.810555 113.43224 86.80324
38.085014 114.51059 83.67629
38.48827 114.74188 87.62176
39.19217 115.318634 89.55318
39.051807 115.93728 84.23639
38.73021 115.52533 89.3789
38.854706 116.0819 90.155334
38.514362 116.66957 90.416084
38.965504 117.23762 91.15966
38.907253 117.96458 83.28305
38.657665 117.881424 83.56886
38.752724 117.20828 84.36382
38.602566 117.170456 85.383736
38.43542 117.63731 86.73441
38.69595 117.8544 91.46241
38.948555 117.84948 91.60705
38.999237 118.50796 83.00943
38.579693 118.46894 83.48527
38.902424 118.276405 85.68697
38.456516 118.27465 86.89673
38.511745 118.694305 91.5711
38.896133 118.45697 91.814415
38.855175 119.06625 83.1065
38.729744 119.37148 83.57375
38.67172 119.3393 84.58858
38.56159 119.59822 87.66117
38.492558 119.60929 91.39171
38.78107 119.587326 91.66784
39.27879 121.31625 80.18329
39.1993 120.13438 83.65323
39.018387 119.990166 84.426056
39.120327 119.99439 84.97267
38.76574 119.75722 87.783936
38.407303 120.41389 90.88695
39.29866 121.91104 79.33591
39.072086 121.88486 79.76451
38.964252 121.90572 80.157814
39.07815 122.09442 81.1767
38.937202 121.23034 89.22179
38.942196 121.55339 89.6034
38.707283 120.886604 90.66365
38.84925 121.87077 91.86823
38.90458 121.86143 92.57036
38.843204 122.22139 93.46756
39.299774 122.31309 79.30149
39.072273 122.39086 79.66113
38.93711 122.443504 80.53193
39.085068 122.466644 81.22176
39.310608 122.81458 81.85851
39.143364 122.55547 89.39955
38.735878 122.64279 90.638176
38.471516 122.499626 92.79717
38.708508 122.57456 93.37058
39.06204 122.7756 94.01319
39.20838 122.95985 79.78808
39.17539 123.11191 80.60215
39.27995 123.184525 81.37398
39.34268 123.040115 81.89077
39.203705 123.229416 89.61915
38.90014 123.00889 90.64718
38.55321 123.349686 91.46005
38.623547 123.41096 93.51556
38.935204 123.47694 93.94862
38.936924 124.79221 91.05136
38.542454 124.70778 91.87794
38.522686 124.60358 92.15529
38.711384 124.39722 93.31707
39.163708 124.42431 93.907875
39.31342 125.7789 88.95216
39.295128 125.97886 89.31687
39.186657 125.34262 90.92962
38.705086 125.4723 91.75967
38.662292 125.36607 92.37946
38.910454 125.24874 93.1634
39.194267 125.05137 93.662994
39.25265 126.545334 88.781525
39.172516 126.53137 89.36178
39.218655 126.32033 90.38077
39.020878 126.087585 91.71175
39.012188 126.05173 92.37376
39.095844 125.839165 93.01511
39.378582 127.095856 88.62697
39.28622 127.116 89.51635
39.949795 108.35361 83.98304
39.64476 108.34178 84.53103
39.640984 108.411194 84.95634
39.733036 109.02995 82.85489
39.42365 108.560326 83.75211
39.281624 108.47348 84.85482
39.338955 108.683174 85.24658
39.704098 109.12299 85.97181
39.91299 109.844444 82.18378
39.33129 109.60689 82.69264
39.62563 109.60242 86.295105
39.572758 110.47195 82.15405
39.249195 110.17254 86.4838
39.99176 110.72853 86.758286
39.848736 111.497055 82.40769
39.373943 111.73103 86.732414
39.719975 112.657524 82.74942
39.71088 112.52654 86.88939
39.52652 114.17244 87.67972
39.501873 115.00397 89.14806
39.735355 115.399475 83.63616
39.480423 115.77133 90.2406
39.975124 116.622986 83.092224
39.538673 116.73099 83.476494
39.561802 116.78283 91.0631
39.61181 117.84313 82.890945
39.28298 117.49744 91.5652
40.0857 118.97145 82.41509
39.659187 118.89283 82.658226
39.86129 118.1711 91.87794
39.48246 119.00408 82.68415
39.66632 119.21778 91.99035
39.593945 121.23546 79.8818
39.46164 121.232376 80.30153
40.041786 121.10184 81.77144
39.674194 120.31399 83.1624
39.554646 120.73794 84.829865
39.32817 120.06713 87.89667
39.717075 121.83404 79.12094
39.47121 121.46735 79.56934
39.718605 121.76763 82.0102
39.556656 120.89101 83.97316
39.47856 120.791664 84.375496
39.818306 120.87558 84.96307
40.234634 121.264755 88.31969
39.545147 121.49678 88.824615
39.552715 121.99456 93.922424
39.608593 122.35589 79.06702
40.31146 121.86926 83.51164
40.052307 122.815994 88.022934
39.55468 122.65517 94.36199
39.88087 122.940125 94.61624
39.912796 123.20525 79.202126
39.56403 123.275795 79.56696
39.420605 123.545555 80.493706
39.463726 123.52035 81.29739
39.685616 123.36358 82.1829
40.162792 123.31746 82.695854
39.508034 123.5367 89.08138
39.46034 123.44809 94.38322
39.934013 123.38698 94.58618
39.916035 123.709595 79.703316
39.640083 123.787056 80.6856
39.7416 123.88825 81.414604
40.00652 123.70912 82.27167
40.033726 124.41411 87.93087
39.763195 124.93203 88.21794
39.70426 124.39302 94.267654
39.98087 126.053444 87.081184
39.68019 125.950485 87.73989
39.49235 125.45071 88.526276
39.385044 125.51624 93.540794
39.647007 125.15156 93.90128
40.0828 126.49761 86.77175
39.6859 126.45139 87.53616
39.541054 126.43085 92.51424
39.61606 126.052666 93.18
40.009556 127.08814 87.03046
39.875416 127.27579 87.46726
39.606876 127.439606 88.371544
39.47279 127.474686 89.44357
39.621635 127.28407 90.17239
40.03461 127.81249 88.04047
39.812946 127.80755 88.79885
39.739662 127.78059 89.53379
40.040707 127.79289 90.02919
40.725067 108.270424 83.72829
40.6216 108.15202 84.407585
40.49621 108.217636 84.87585
40.676857 108.63524 82.94695
40.652237 108.596 85.22508
40.210636 109.132225 86.09855
40.620983 109.76325 82.01213
40.86749 109.87329 86.804886
40.585564 110.40087 81.81864
40.40404 111.06652 81.91299
40.93279 111.80071 87.44533
41.085167 112.01816 87.573456
40.975327 112.40383 82.507454
40.675484 112.797485 87.43638
41.1763 112.24527 87.632774
41.08641 113.333405 87.6036
40.374855 114.87261 83.09341
40.37724 115.05814 89.63727
40.359455 115.09244 89.83862
40.57088 115.60228 83.04811
40.275875 115.733765 90.453285
40.492676 116.64626 82.80737
40.473877 117.60255 82.51786
40.202873 117.80383 91.76231
40.76887 118.437935 82.40835
40.134678 118.86559 91.96575
40.7651 121.30727 79.0425
40.386215 121.00187 79.69657
40.267498 120.15936 82.72231
40.253735 120.723076 92.80082
40.55288 121.58598 78.936516
40.94869 121.57036 85.54249
40.444454 120.796364 85.75058
40.67288 121.78626 94.05993
41.14957 122.461655 78.31183
40.19825 122.436966 78.75905
40.675297 122.087585 83.35271
40.981785 121.897026 86.03012
40.794632 122.92682 86.88027
40.383766 122.779816 94.67723
40.72389 123.471825 78.808266
40.83206 123.3477 86.74086
40.429207 123.36216 94.666855
41.14582 123.960396 78.90856
40.99915 124.407196 79.398735
40.7653 124.42409 80.43556
40.45003 124.2592 81.549225
40.443367 124.130264 82.161125
40.930893 124.53125 86.73129
40.316223 124.23176 94.497345
40.50263 124.012634 94.627815
40.77877 124.5845 80.70965
40.929924 124.59153 81.59031
40.59994 125.6153 86.70732
40.780632 125.29566 94.34227
40.480446 126.8162 86.387
[...]
POINT_DATA 8310
SCALARS features_00 float 1
LOOKUP_TABLE default
0.6811061 0.80936265 0.7952079 0.76119614 0.71658695 0.83854866 0.8707241 0.8493133 0.74019706 0.8198397 0.8594668 0.88139486 0.79246885 0.8180052 0.85813165 0.59455967 0.59051514 0.61476815 0.64032084 0.6005539 0.5510496 0.75863373 0.6886821 0.6055468 0.51966834 0.7834314 0.6517017 0.5472516 0.7311853 0.78247213 0.6956372 0.5901964 0.71603197 0.77177864 0.8362981 0.76198673 0.5273156 0.5218765 0.49853152 0.54463756 0.55338824 0.560306 0.49381894 0.5353732 0.5639534 0.56957364 0.52380943 0.5530895 0.5858308 0.5816158 0.5716286 0.5857192 0.57904744 0.5489601 0.57193613 0.5073927 0.44404763 0.6351926 0.33393002 0.6532166 0.34262082 0.62310314 0.28622717 0.6222131 0.6725277 0.11142015 0.69820154 0.19707467 0.28768426 0.40473437 0.43892887 0.16574895 0.3823551 0.44402546 0.5155227 0.51072633 0.44881135 0.54299974 0.543913 0.5251962 0.4749654 0.32175285 0.45272893 0.48781735 0.56221116 0.5334237 0.44142923 0.42490643 0.48742706 0.52222484 0.5443857 0.5322016 0.3793192 0.4283164 0.45313668 0.48351538 0.5179898 0.40622765 0.48054647 0.52936053 0.4239948 0.48418528 0.5200432 0.4598973 0.56741935 0.5738418 0.56415695 0.5183706 0.55303 0.5015762 0.4408133 0.48287433 0.5045012 0.33117285 0.18928072 0.5402057 0.070299216 0.43834758 0.006075591 0.5187572 0.18892437 0.31136832 0.1764274 0.36229047 0.41073772 0.47271803 0.4485563 0.43100774 0.43400136 0.32666117 0.16033486 0.24240723 0.48250496 0.463578 0.4574541 0.4769571 0.13562708 0.2819533 0.50399786 0.4734906 0.4992385 0.49585155 0.3896495 0.35544202 0.5102248 0.4909342 0.73673916 0.4466804 0.37766045 0.30273068 0.32432732 0.40092814 0.7371057 0.76875687 0.77893794 0.6779777 0.13467263 0.13036157 0.26563668 0.34515962 0.45851064 0.5485624 0.75192165 0.780529 0.757671 0.6493701 0.51958317 0.039693937 0.18780185 0.4955633 0.5486971 0.58554304 0.76548254 0.6923448 0.5747874 0.51127183 0.060317017 0.2022258 0.36060798 0.56287664 0.58700514 0.27711248 0.41792572 0.4538265 0.552346 0.5758206 0.37319303 0.38155338 0.2775276 0.4110474 0.4863654 0.5422663 0.55777764 0.49343377 0.45354024 0.35070312 0.39510012 0.4887063 0.53516775 0.52790344 0.48293948 0.48370177 0.4908865 0.48031154 0.5383613 0.53409505 0.5096396 0.4902843 0.4095274 0.4940224 0.5184129 0.3533919 0.47716898 0.3095899 0.14332649 0.38003793 0.122465834 0.16878322 0.03131485 -0.028020844 0.2493113 0.13461089 0.31775331 0.26475444 0.29555887 0.33616042 0.37319213 0.42248988 0.36584067 0.4267608 0.38963348 0.4518172 0.39751232 0.6814946 0.71395147 0.4539516 0.43004626 0.18796535 0.18746665 0.68539107 0.70410085 0.4849809 0.27080926 0.23455897 0.12546808 -0.020485386 0.04103051 0.5545956 0.71254027 0.115622565 -0.05243103 0.5593879 0.5115317 0.6574237 0.707778 0.6385944 0.55101055 0.45048916 0.34927803 0.024027515 0.56353205 0.5070364 0.6173811 0.57390046 0.5030396 0.41794622 0.099024214 0.2206366 0.5383509 0.3789471 0.4058481 0.3313413 0.5408253 0.53150743 0.40780047 0.46190557 0.4919209 0.52260584 0.46027732 0.49672925 0.53327394 0.4990977 0.43850118 0.5056361 0.517104 0.49369362 0.42865884 0.4529689 0.431199 0.4257762 0.4980691 0.4033865 0.35771975 0.50021416 0.121705055 0.47354835 0.41973758 0.017677393 0.010114948 0.13913044 -0.0015808064 0.005822589 -0.0049033985 0.13282011 0.1794819 0.19172606 0.18257652 0.20051023 0.23821305 0.2784636 0.32232562 0.24814935 0.34647927 0.5307264 0.55164945 0.40271032 0.19377899 0.57491714 -0.095649526 0.0579525 0.4110325 0.513438 0.63581085 0.11183548 -0.26358384 -0.21974176 0.45020503 0.5134299 -0.14617595 0.45060107 0.42076612 0.39984384 0.41557845 0.4236672 0.37859505 0.0052481545 0.47088754 0.44715723 0.37479177 0.27689615 0.23394069 0.42240068 0.3586979 0.3476297 0.47314537 0.29712042 0.40975773 0.3762783 0.41617417 0.4546789 0.41601077 0.4089507 0.7017033 0.3829502 0.39402872 0.3804311 0.30995607 0.44089705 0.4484843 0.24300769 0.11468664 0.03363736 -0.007370949 0.47048253 0.005705394 0.3090666 0.010218853 0.0066901995 -0.00022742245 0.02594854 -0.04647291 0.12594023 0.1546146 -0.017743826 0.15915617 -0.0023099333 -0.054783456 0.15399079 0.1650921 0.08408239 -0.11956467 0.34554586 0.32019746 0.095526665 0.4285363 0.40306696 0.35165522 0.46899915 0.07720952 -0.050755404 0.27857712 0.38683337 0.45178708 0.4231781 0.36590976 0.29976982 -0.08905052 -0.08021948 0.37859994 0.15603068 0.22935887 0.09337404 -0.10503462 0.0216691 -0.03610073 0.24776402 0.29499805 0.17328343 -0.05895357 -0.01832977 0.07882495 0.07750054 0.42887515 0.39422113 0.3292207 0.13512418 0.17024554 0.08892857 0.20055786 0.19572389 0.17412455 0.20667322 0.14573938 0.46435004 0.6074408 0.6085452 0.32006565 0.41349712 0.5099814 0.69502366 0.7184957 0.6970189 0.67365193 0.50014126 0.5692283 0.7351223 0.7580751 0.7545347 0.7248627 0.74906933 0.7779531 0.7721782 0.34390175 0.3364383 0.32894045 0.35509735 0.33278483 0.52329755 0.56828433 0.5846997 0.14187208 0.2704741 0.34052348 0.32602572 0.5014998 0.5493633 0.5844556 0.34811684 0.31770346 0.2789421 0.16597186 0.120613635 0.24495444 0.26459908 0.42162037 0.5266361 0.5545027 0.5207693 0.38440016 0.13096623 0.32756385 0.4310231 0.477607 0.4568606 0.40051097 -0.03233831 0.15912944 0.2324827 0.42991298 0.06288642 0.4750491 0.55247056 0.09400761 -0.02365357 0.05814349 0.06414397 0.36606967 0.49162227 0.5755936 0.5598825 0.070360616 0.070991 0.36331367 0.4711064 0.5437579 0.54764414 0.025763623 -0.12740159 0.2700765 0.39670846 0.4687159 0.49566212 0.080004685 -0.0712524 -0.116404235 0.2496516 0.298966 0.12089045 0.111353144 -0.08689263 -0.16690889 0.0938655 0.20789602 0.010466099 0.012391133 -0.1273545 0.18730552 0.28418913 0.29623258 -0.0029553305 0.30667582 0.35762072 0.38992518 -0.20056485 0.022177406 -0.2349653 0.37452084 0.41549218 0.42005098 0.076052666 0.12966226 -0.14916025 0.44935045 0.27727902 0.3004449 0.23057736 0.079210885 0.11865628 0.31125247 0.08075289 0.044560418 0.06386256 0.17079479 0.44024527 0.4364158 0.4472326 0.34580025 0.0353479 0.10984333 -0.18657905 -0.17177893 -0.12090631 0.47221345 0.48848826 0.48498163 0.43270624 0.15578273 0.20227408 0.14756948 0.2008399 0.18837962 0.13077037 0.50682104 0.13080454 0.28838068 0.6244732 0.39988863 0.45904368 0.5612845 0.749673 0.72302127 0.56784654 0.7162106 0.76210773 0.75816727 0.42416033 0.38860783 0.3972184 0.40650433 0.39717722 0.33985826 0.33536112 0.317795 0.38189265 0.33513033 0.32261845 0.32660803 0.50580627 0.5580504 0.59367335 0.26718044 0.30906978 0.3122417 0.3096777 0.23106071 0.429851 0.5148402 0.5641644 0.60603374 0.62045985 0.1910413 0.17100978 0.19624595 0.10451819 0.4810809 0.60175383 0.5821613 0.21343541 0.16098294 0.21084127 0.032364264 0.06460652 0.25364465 0.50174385 0.27047342 -0.006115701 -0.09331989 -0.011183895 0.121339336 0.34756827 0.24504565 -0.04877872 -0.071829036 0.050569043 0.10596406 0.3201729 0.33223265 -0.088596806 -0.11359457 0.009765483 0.04602085 0.09312272 0.17266436 0.14987776 0.07215212 0.04744287 0.07930079 0.06233402 0.08728884 0.06665805 0.21028991 0.4428732 0.51253164 0.17292427 0.06975737 0.0868135 0.088319786 0.072688326 0.53282297 0.5013611 0.001353696 -0.3996128 -0.0005094791 0.0756083 0.08567649 0.08661206 0.5180347 0.47492427 -0.09388384 -0.021739587 -0.053134866 0.41461235 0.463067 -0.05199286 -0.049152616 0.09475613 0.22601965 0.27042958 0.28334928 -0.23128313 -0.011283315 0.22246622 0.18715097 0.47023773 0.31887257 0.14473678 -0.41527197 -0.18855833 0.30093336 0.2416338 0.2767433 -0.09177659 -0.35173813 -0.21655975 0.36430192 0.38258716 0.24908632 0.106961444 -0.09430509 -0.123852596 0.30194944 0.43327153 0.4404353 -0.019185072 -0.04854457 -0.17883457 0.3658265 0.4494961 0.46814495 0.4631255 -0.07361549 -0.1762906 -0.00055075437 -0.21793139 0.28835016 -0.06917431 0.7350383 0.799433 0.81604934 0.46396562 0.33585498 -0.02230547 0.57862777 0.7463895 0.82910293 0.84008646 0.1584052 0.1530874 0.12733588 0.59964603 0.7771113 0.84019923 0.83713776 0.8180841 0.22779131 0.23889212 0.6952697 0.7496089 0.7896032 0.80374587 0.427347 0.11011498 0.15720707 0.45946077 0.48395967 0.44144446 0.28664923 0.0016994812 0.017046673 0.06453503 -0.07958581 0.08052316 0.47425804 0.4683054 0.41048208 0.16931137 0.1445668 0.116654724 0.2218309 0.6238861 0.48389667 0.3820385 0.41674116 0.4600041 0.70343155 0.6915879 0.5172687 0.5919911 0.66460633 0.71414757 0.32099348 0.41249827 0.395217 0.3296551 0.3088577 0.3187266 0.4008302 0.40153956 0.3634245 0.32922137 0.32608527 0.31103384 0.3200979 0.2820447 0.19172147 0.2646101 0.28205508 0.27817017 0.47261864 0.5152771 0.5803469 0.58248365 0.21422789 0.5935396 0.15358576 0.45845985 0.10554186 -0.055724233 0.4325924 0.3399271 0.1235764 -0.22096291 -0.095228076 0.12997276 0.21294573 -0.27506006 -0.041627124 0.10240969 0.094844386 0.0039055813 -0.060852855 -0.02777006 0.32814312 0.25247473 -0.13540724 0.4543923 0.39855698 0.28575683 0.26655397 -0.25951973 0.41681576 0.19903338 0.39307618 0.36635596 0.21458524 0.5115781 0.49334642 0.4164069 0.27236283 -0.051941264 -0.28854033 0.11418685 0.38316944 0.40554118 0.50941527 0.49822825 0.1323271 -0.11823155 0.22461024 0.14833942 0.39013523 0.41556865 0.48141226 -0.08906025 0.19279927 0.42706108 0.46546412 0.23532254 0.43390393 -0.042648587 0.34292322 0.42123485 0.41586527 0.23916209 -0.21897094 0.51845837 0.4593561 0.41988954 0.50372016 0.7283219 0.6124567 -0.019576944 0.29633042 0.43774867 0.5493101 0.80228424 0.8034704 0.6548221 0.60056686 0.09988383 0.35899752 0.419163 0.4925605 0.793821 0.6145097 0.52324116 0.19801316 0.35142565 0.52236617 0.56768537 0.6577984 0.74484646 0.76609766 0.14505334 0.38852724 0.4961098 0.61752796 0.6883087 0.34914508 -0.024042426 0.13365516 0.1258469 0.4067381 0.42114085 0.27985978 0.18013561 0.18503708 0.18306865 0.21829928 0.23797958 0.22143817 0.1822673 0.10516045 0.2456439 0.26078257 0.34534648 0.41638717 0.45290715 0.45633405 0.6096519 0.6200027 0.44848984 0.5211281 0.6237634 0.7113273 0.68791866 0.7039556 0.5287064 0.28206673 0.28274384 0.5915737 0.46707007 0.31028536 0.29164353 0.28674617 0.2824597 0.31801707 0.30589885 0.31260312 0.2734423 0.21458134 0.10075405 0.20304754 0.06441917 0.24656045 0.453175 0.029717043 0.455826 0.34295025 0.030224293 0.37895656 0.0539679 -0.05634065 0.22896187 0.22130461 0.14898592 0.029256307 -0.0045310967 0.27064323 -0.00464575 -0.012056038 0.30068633 -0.0393329 0.34686208 0.34819067 0.17931664 0.3367178 0.12658736 0.2990873 -0.025120325 0.17173216 0.4375134 0.34707808 -0.21773325 0.34435654 0.35579076 0.3025002 0.4821704 0.4838877 0.032771558 -0.05088429 0.24467087 0.29189703 0.38801455 0.40348822 0.39191073 0.49947047 0.5021088 -0.07945369 0.251984 0.33670527 0.38073978 0.41909346 0.44726777 0.4616735 0.5060257 0.16110589 -0.08359824 0.37505373 0.43840107 0.49376392 0.50533426 0.5006831 0.06699768 0.13467564 0.21895881 0.33793813 0.45310715 0.5155496 0.5383859 0.18542165 0.306112 0.39324954 0.48169804 0.5164452 0.20898673 0.25595355 0.25577903 0.17529283 0.25129792 0.87609947 0.8457627 0.7060797 0.4769653 0.43515915 0.86821663 0.8649513 0.8478192 0.78333455 0.71296704 0.63972247 0.5897882 -0.11259654 0.2134028 0.38251135 0.44802332 0.47338802 0.68468416 0.8239782 0.78451073 0.77141094 0.7564292 0.72841966 0.7222066 0.67407405 0.7557522 0.7145592 0.6719863 0.6518048 0.6380794 0.7431731 0.70938504 0.72101927 0.68102074 0.64785516 0.52941716 0.33193594 0.68915784 0.55000794 0.46985626 0.17426917 0.082337484 0.32228774 0.5299158 0.5933895 0.6421194 0.13397604 0.07802966 0.43799365 0.5091852 0.2551631 0.26163688 0.22486438 0.16229393 0.21234865 0.27188352 0.2768504 0.3174525 0.28073534 0.2419724 0.0920208 0.028919384 0.12528044 0.40956345 0.33060673 0.30962873 0.28033227 0.32469177 0.29929417 0.25965604 0.20758846 0.27433193 0.30895475 0.42054504 0.8844718 0.8081193 0.73410815 0.64158356 0.88552564 0.7737876 0.6881627 0.59497243 0.44199574 0.35164082 0.32342476 0.8640329 0.7607329 0.28410488 0.29598463 0.8266281 0.6606721 0.27890214 0.26533547 0.5850985 0.25636804 0.25606397 0.42301986 0.1759899 0.08593105 0.1301269 0.16894141 0.15621747 0.06592646 -0.08385568 0.19018322 -0.16267253 0.099958524 0.13352273 -0.02889067 0.23214746 0.18992184 0.12179118 -0.0020909011 -0.00055354834 0.2505889 0.24496333 0.005650975 -0.01466338 0.31888133 -0.07058283 0.3324899 -0.26558885 -0.26841164 0.08294032 0.3376321 -0.28677613 -0.10391058 -0.048703257 0.1045735 0.11650181 0.12028764 0.13446252 0.09052931 0.3223493 0.17622073 0.09153518 0.16108385 0.16367184 0.16342057 0.09734514 0.41906616 0.39669907 0.348167 0.29626834 -0.014874406 0.05922904 0.18448709 0.45112434 -0.11211069 0.0035513453 0.2893898 0.27275705 0.47306842 -0.3206402 0.10900447 0.3645664 0.38676453 0.46891183 0.49748358 0.4813314 0.41966718 0.22155465 -0.04165197 0.5197344 0.4722889 -0.12387048 -0.016403195 0.45765945 0.402328 0.6841624 0.5388627 0.48975098 0.32056877 0.04870347 0.06252201 -0.14856784 -0.079396494 0.26181352 0.31831425 0.34366417 0.88823044 0.86008656 0.6310924 0.5421698 0.5410719 0.45093745 0.42111525 0.32196125 -0.34507164 0.26746264 0.85196024 0.60193366 0.6495673 0.65694755 0.5474414 -0.20853418 0.24753413 0.18159112 0.4624362 0.30878216 0.7525742 0.6408658 0.7436787 0.658645 0.6553083 0.59296966 0.5742128 0.5635859 0.5434836 0.7512671 0.520442 0.5759374 0.5283806 0.51066256 0.5097024 0.50624204 0.6920596 0.62755346 0.53942937 0.57904536 0.4867619 0.1467135 0.5389708 0.5395242 0.053955145 0.12985772 0.3413791 0.44122493 0.48268467 0.50701416 0.13937843 0.07557452 0.09231064 -0.07847526 0.30781725 0.24756104 0.25799954 0.17122522 0.11842181 0.118846275 0.48084557 0.4031175 0.3838375 0.31303412 0.32264695 0.2624802 0.24133521 0.24796055 0.58536816 0.53596264 0.5369374 0.43303722 0.56688523 0.6816332 0.7010054 0.70904106 0.7526264 0.8686302 0.89658606 0.8652652 0.79398376 0.91562855 0.8530536 0.7571659 0.6635877 0.5909127 0.84448624 0.89457846 0.836946 0.7725363 0.93396944 0.40888315 0.3572591 0.8007093 0.85722816 0.8288603 0.75783336 0.9125005 0.8961116 0.3333872 0.30315912 0.7855338 0.852324 0.28631574 0.75225186 0.11318046 0.45980197 0.045591027 0.0363791 0.01911144 0.07694538 0.027186498 -0.014411755 0.31921464 0.4604842 0.5079866 -0.15328681 -0.01581797 0.22546813 0.26313892 0.2436004 0.30647674 0.41093162 0.47460312 0.5390228 0.5516245 -0.18821417 -0.14135621 0.23270014 0.29170936 0.28505343 0.2165606 0.27194053 0.40228534 0.4794671 0.5133975 -0.226459 0.09148762 0.2589121 0.2920964 0.2618617 0.14836593 0.16719046 0.27532065 0.4114247 0.4232506 0.1617445 0.12401882 0.10882793 0.23849538 0.209766 0.13593657 0.22619721 0.29722372 0.22952585 -0.20578691 -0.0020013042 0.102755055 0.04078405 0.22645201 0.29983798 0.25257677 -0.2624968 -0.057674877 0.16752417 0.2959904 -0.20247597 -0.08336133 0.05247675 0.055060595 0.062248364 -0.03993423 0.27274457 0.14573035 0.1007673 0.06209205 -0.0022222064 -0.020426515 -0.22402886 0.005871646 0.25154817 0.052776374 0.0088101085 -0.028551746 0.36970097 0.08873308 0.033809748 0.41190213 0.08160286 0.4317214 0.17385131 0.37138695 0.33273262 0.19871272 0.34785724 -0.061655357 0.21367075 0.6017245 0.61179537 0.42484382 0.43467182 -0.09454631 -0.15147737 0.23737401 0.25137073 0.8867096 0.45490855 0.37252173 0.48078316 0.5456923 0.39198875 0.2695014 -0.10894531 0.12968528 0.18429042 0.49939367 0.5492296 0.58716166 0.22175282 0.68676007 0.5823366 0.46803984 0.5499979 0.5845703 0.73631644 0.56506145 0.62452984 0.5528605 0.47743118 0.4239678 0.5443055 0.54755044 0.7125721 0.6443931 0.40893516 0.5364245 0.4443894 0.47001207 0.46291083 0.666862 0.60290015 0.5155963 0.35215843 0.4302675 0.44456756 0.5066829 0.48520035 0.48591477 0.1480933 0.47143906 0.46832728 0.4787371 0.34334922 -0.21872559 -0.097766615 0.4130955 0.4746292 0.36919364 0.34552568 0.26114723 -0.13856988 -0.21170531 0.047492977 0.16562214 0.056951128 -0.14854664 0.01321703 0.3600813 0.4673717 0.38252836 0.2201319 0.31493834 0.5537163 0.6148457 0.71129346 0.7600794 0.7677832 0.7417628 0.84487915 0.87435645 0.8427162 0.78600025 0.7817558 0.7677654 0.7566445 0.8212547 0.8709955 0.8518885 0.83119065 0.761487 0.73953223 0.69463485 0.8278593 0.8761175 0.836118 0.77776414 0.90365314 0.8427508 0.64231414 0.5864026 0.7567309 0.79766786 0.72551453 0.6824892 0.9157816 0.90120256 0.5232212 0.43780476 0.66299474 0.7163141 0.7127976 0.68573034 0.89743197 0.8713826 0.36232525 0.32860935 0.6583191 0.65108657 0.60047114 0.5965791 0.6507056 0.63291836 0.81852114 0.6525369 0.31465265 0.5117773 0.55264133 0.6001389 0.45825952 0.09228958 0.03295046 0.47022936 0.42215097 0.26088247 0.4602313 -0.17197794 -0.05576858 -0.14984798 0.06691091 0.1537509 0.16277388 0.15605876 0.10265666 0.1304864 0.3291852 0.4790337 0.53378916 0.5476108 0.032715723 -0.011390753 0.004004635 0.14838651 0.19620848 0.16952026 0.26732755 0.52393043 0.5622943 0.60329473 -0.26426554 -0.025204152 -0.12359036 0.11552526 0.13743526 0.563102 0.58780587 0.60231256 0.505787 0.3756408 0.057888016 0.059076987 0.5447352 0.5641421 0.4302631 0.3829497 0.25704676 0.021745443 0.48169863 0.51094735 0.25850424 0.32265815 0.32115862 0.39480966 -0.016730843 -0.062741674 0.3659639 0.43203068 -0.019395113 0.27714226 0.3866392 0.44196066 0.0915553 0.36184204 0.23230213 -0.12449741 -0.036095195 -0.054771896 0.29917663 0.22203203 0.014920672 0.12999748 0.30256674 0.14841776 0.30711487 0.36543256 0.13162889 0.22448866 0.24397703 0.32288656 0.14405076 0.18073691 0.20691884 0.23586869 0.22093402 -0.033404853 0.10789558 -0.05270329 0.1941213 0.37818876 0.2708005 0.11594412 0.010711752 0.29425976 0.4279363 0.46776548 0.03911423 0.5450162 0.032837868 0.12645422 0.36325017 0.54572916 0.5334784 0.06741504 -0.07010483 0.099798985 0.6135532 0.59806466 0.59554744 0.025076643 -0.050320745 0.075130165 0.09950934 0.5279632 0.5910066 0.5982365 -0.08811841 0.45295942 0.46250427 0.4877038 0.54718864 0.5634451 0.3076165 0.17109403 0.42907208 0.39075994 0.49040395 0.49750745 0.33971587 0.39729732 0.4126469 0.37467238 0.20698012 0.40801412 -0.31890643 0.45385265 0.43792284 0.36095712 -0.1924734 -0.16267535 0.45863345 0.39897427 0.45766094 0.4002035 0.40851527 0.39975291 0.20041932 0.2394602 -0.16029193 0.021903716 -0.1616287 0.44835508 0.53151697 0.43605012 0.47896928 0.4543234 0.37014186 0.28009623 0.5296281 0.65036047 0.69761276 0.7901948 0.6897826 0.8127162 0.8928633 0.9381602 0.9028723 0.7848807 0.7634424 0.7717149 0.7522037 0.79882085 0.81031364 0.79453933 0.7850482 0.7584492 0.7760513 0.78179747 0.75767815 0.7348671 0.70226896 0.6502359 0.7332754 0.71058816 0.69682336 0.6626583 0.67107975 0.66577363 0.7513622 0.75688684 0.7884126 0.7912126 0.7616513 0.7499484 0.73349464 0.7444246 0.7615515 0.7446686 0.8738992 0.8147949 0.77099186 0.70608115 0.64680743 0.6865319 0.65639806 0.8638585 0.80830944 0.67499965 0.71938145 0.70952487 0.62964606 0.80851555 0.62055206 0.67234373 0.6445002 0.48675668 0.3747649 0.5135152 0.5116446 0.6414292 0.51621926 0.34506303 0.23127879 0.45493516 0.47197878 0.49142712 0.06442117 0.018815145 0.42425308 0.41165385 -0.13757929 0.13611625 0.31131142 0.30453295 -0.13213857 0.045239776 -0.27914616 -0.16963203 -0.13506112 0.057208575 0.02869515 -0.09081325 0.39994 0.5401134 0.5450375 -0.33198494 0.58339274 0.6252965 0.45041573 0.6389154 0.6502848 0.51031035 0.5200827 0.6364726 0.37920392 0.43866304 0.56202805 0.3135302 0.3277063 0.3169871 0.10700311 0.37159646 0.44067258 -0.059343543 0.4674629 0.37124392 0.30050188 0.22219945 0.4587745 0.38753888 0.38296694 0.3047387 0.26536375 0.27945292 0.43386203 0.3633327 0.34036595 0.24409802 0.13432811 0.32999116 0.037208922 0.15866333 0.32324463 0.3080451 0.19939397 0.1771556 0.16509336 0.30238593 0.24400327 0.21374406 0.25857207 0.13830042 0.19737905 -0.0077558532 0.053831127 0.08790061 0.10639534 0.15217197 0.18905893 0.037455488 0.06596891 0.10098811 0.14871407 0.17640427 0.31445473 0.3716982 -0.42227304 0.003829904 0.07920839 0.08289546 0.4488919 0.45238167 -0.38469863 0.04348829 0.03363019 0.48855498 -0.10243531 -0.28182384 0.07871924 0.55666125 0.5320653 0.10243 0.079253644 0.2370857 0.57990336 0.54776645 0.0032398775 0.22501695 0.5445445 0