# vtk DataFile Version 2.0
Really cool data
ASCII
DATASET POLYDATA
POINTS 8355 float
42.4066 93.10934 83.79694
42.403458 93.159874 84.457794
42.339314 93.63466 83.66475
42.369427 93.62523 84.36542
42.350292 94.078575 83.707726
42.373585 94.09553 84.2693
43.32527 91.960556 82.7626
43.120808 91.834755 83.6702
43.130444 91.94481 84.24729
43.352036 92.64383 82.27204
42.992622 92.80096 82.74362
42.581707 92.84467 83.60426
42.61139 92.82018 84.33319
42.9306 92.6997 85.032875
43.286892 93.10861 86.13685
43.32717 93.129456 82.36808
42.672855 93.54792 82.96505
42.453304 93.35536 83.31054
42.47249 93.43738 84.59398
42.75218 93.503746 85.16533
43.164307 93.60671 86.05062
42.775105 94.20627 83.03131
42.559093 94.4717 83.587234
42.58746 94.45902 84.40215
42.916893 94.327774 85.27562
43.2275 94.1973 86.00056
43.07602 94.687965 83.17816
42.79602 94.70946 83.60089
42.940376 94.8053 84.34086
43.182198 94.73415 85.30089
44.288773 76.06009 88.733154
44.292423 75.97552 89.27273
44.371147 76.75565 88.19912
44.1887 76.4378 88.683556
44.10162 76.63002 89.35766
44.28014 76.69885 90.08571
44.392506 77.11895 88.2682
44.217518 77.35953 88.73894
44.080597 77.38794 89.4527
44.20275 77.352776 90.043655
44.32403 78.07784 88.846825
44.221397 77.97051 89.58228
44.274837 78.00167 89.93685
44.120598 82.06695 89.74697
44.057625 82.05459 90.48736
44.184998 82.000206 90.82053
44.21493 82.64999 89.23986
43.95083 82.58692 89.72617
43.88353 82.49973 90.45189
44.034344 82.638054 91.06857
44.218586 83.30929 89.0456
43.869373 83.04896 89.97765
43.848682 83.34977 90.49815
44.150726 83.33691 91.329605
44.360943 84.676315 88.969826
44.331722 84.490036 89.64645
43.923042 83.89182 90.74534
44.237957 84.2866 91.259125
44.043587 85.88693 88.07668
44.10573 85.65094 88.52743
44.098007 85.47111 89.35465
44.005047 85.66468 90.4615
44.396442 86.88077 87.03469
44.13992 86.55042 87.728935
43.87969 86.75486 88.38052
43.841976 86.41435 89.91242
43.93725 86.47916 90.577675
44.13608 86.57419 91.29639
44.085373 87.40013 87.86382
43.933628 87.36747 88.549324
44.013355 87.521965 89.36737
44.011097 87.202965 90.47532
44.21809 87.258354 91.11218
44.148327 87.83601 87.96749
44.243504 88.14285 88.60239
44.317356 88.05755 89.75427
44.28285 90.11279 83.08403
43.978672 90.13784 83.68548
43.911884 90.04041 84.50798
44.174217 91.23616 82.01932
43.921223 90.903915 82.75339
43.794918 90.92685 83.11914
43.737427 90.75015 84.80021
44.215294 90.24056 85.577644
43.786278 91.82281 82.089264
43.583588 91.54364 82.66373
43.859547 92.05185 85.86555
43.893936 92.5517 81.818184
43.84671 92.46127 86.21758
43.606747 93.54005 82.101204
43.48303 93.589584 86.458694
43.899227 93.46004 86.803276
43.435307 94.34351 82.67754
43.586582 94.37864 86.279785
43.948006 94.13599 86.83227
43.444138 94.78232 83.07895
43.32225 94.94321 83.6317
43.54663 95.053894 84.29173
43.643692 94.879364 85.508224
43.73644 94.780365 86.07514
45.07749 75.21584 88.65487
44.95266 75.229805 89.61421
44.862587 75.9649 88.09358
44.547966 75.831604 88.60989
44.58419 75.61955 89.43035
44.671455 75.84977 90.24416
45.060467 75.78655 90.8935
45.37786 76.7879 76.95911
45.308044 76.79805 77.54456
45.33776 76.870155 77.91385
44.89168 76.57067 87.84658
44.556835 76.514366 90.5297
44.990692 76.670235 91.09831
45.341133 77.40376 77.035034
45.279606 77.371544 77.43639
45.339245 77.26437 78.00682
44.628605 77.22364 88.020164
44.406208 77.3735 88.30545
44.45793 77.26959 90.463905
44.816395 77.56942 90.9229
45.401352 77.80579 77.44657
45.046696 78.25265 88.12986
44.70548 78.23751 88.505455
44.497173 78.452995 89.70752
44.579063 78.14513 90.42573
44.97884 78.27988 90.85454
45.160095 79.21017 88.940765
45.261414 79.37833 89.308495
45.153885 78.91978 90.28206
45.412605 80.53942 88.57153
44.94994 80.91646 90.56324
44.943226 81.00658 90.9635
44.62305 81.69829 89.20311
44.522167 81.549675 89.67921
44.84246 81.74911 91.5483
45.1473 81.792366 91.85834
44.95 82.674774 88.32088
44.577015 82.42185 88.96535
44.42406 82.49605 91.50761
44.786037 82.69178 91.81924
44.573757 83.25577 88.72815
44.3835 83.839966 91.666504
44.775604 83.32749 91.96661
44.816895 84.26464 88.05197
44.623512 84.307755 91.78629
44.929058 85.955574 86.66778
44.522285 85.393456 87.59686
44.389484 86.08578 91.49718
44.757435 85.60084 91.59161
44.99858 86.95921 85.02726
44.815327 86.82881 85.8931
44.616177 86.24962 86.77774
44.81914 86.44725 91.84003
45.37644 87.83742 83.19948
45.101265 87.72949 83.57244
45.100784 87.52206 84.46386
44.73455 87.23607 85.9053
44.679516 87.23477 86.34322
44.44788 87.7854 87.402794
44.528065 87.239334 91.47408
44.999954 87.40032 91.65935
45.34577 88.58193 82.78257
44.744446 88.97929 83.50079
44.55248 88.83427 84.4093
44.6419 88.0811 85.465935
44.757744 88.9223 85.85048
44.811447 88.458984 87.721405
44.409027 88.355675 88.589676
44.59117 87.96936 90.65715
44.88448 87.894165 91.148445
44.417595 89.84705 83.35458
44.9167 89.47226 85.864845
44.775513 88.78913 88.02732
44.82969 88.74839 88.21729
45.307655 89.63597 90.442406
45.20716 90.95174 81.4255
44.34533 90.53875 82.66644
44.944157 90.57359 88.64678
44.91593 90.6239 89.3274
45.0623 90.64331 90.35261
45.26487 90.59826 90.73279
44.571682 91.39935 81.66776
44.866917 91.37504 86.32287
44.908485 91.59971 87.41106
45.064095 91.49295 88.798195
44.864235 91.177986 89.60116
45.09882 91.33537 90.244606
45.306805 91.1495 90.80037
44.970654 92.22595 81.04544
44.97185 92.55638 87.22534
45.090256 91.93073 89.32815
44.91586 93.124504 81.16984
44.40509 93.37736 81.62762
44.613075 93.61361 87.12103
44.742172 93.907745 81.72383
44.800182 94.36052 82.27879
44.437054 94.45912 86.7463
44.110657 94.746445 82.924034
44.43303 94.94351 83.700745
44.443676 95.0765 85.24368
44.556328 94.929214 86.193665
46.121315 73.89181 88.72885
45.96818 73.88422 89.55203
46.165016 73.94324 90.230286
46.150715 75.143394 87.840775
45.625168 74.32779 89.08763
45.67593 74.46442 89.83022
45.861397 74.52779 90.532936
45.8456 75.12659 91.2754
46.07147 76.16675 76.13006
45.98463 76.00491 76.66051
45.891205 75.99801 77.39632
45.9582 76.141365 78.085144
45.83856 75.40698 87.920204
45.41092 75.646095 91.22982
45.909492 75.56735 91.69521
46.166664 76.55399 75.817986
45.617275 76.52013 76.675095
45.50411 76.398834 77.54347
45.595345 76.79041 78.230034
45.99664 76.87821 78.68214
45.977238 76.79365 87.46368
45.523487 76.7794 91.5848
45.899857 76.60296 91.97388
46.02978 77.2318 76.01631
45.601788 77.5556 76.66276
45.548847 77.447845 78.27557
46.126633 77.0835 78.80438
45.872143 77.70702 87.34613
46.334385 77.48784 92.360794
46.425438 77.449135 92.90101
46.021248 77.79663 76.272194
45.858944 78.01486 76.72881
45.56634 78.00462 77.432526
45.62205 77.98822 78.08672
45.908703 78.426674 87.582954
45.364532 78.76851 90.66434
45.572445 77.923386 91.57659
46.132305 78.71939 77.76578
46.393234 79.00097 78.366745
46.325397 80.11355 83.78455
46.199593 79.879585 84.388565
46.202847 79.83922 85.11899
46.385223 79.67133 86.49271
45.69083 79.88473 87.991
45.57151 79.12757 88.429474
46.43157 79.86439 91.878716
46.221954 80.40095 83.82481
46.085438 80.549706 84.359665
46.14733 80.24461 85.95157
45.768982 80.35644 87.50822
45.541332 80.985435 91.4024
46.376747 81.1466 83.19139
46.247936 81.61438 83.82867
46.160965 81.40607 84.39861
46.15099 81.29878 85.091705
45.964607 81.584595 86.78666
45.82584 81.70215 87.17516
45.489952 81.58165 91.97919
46.374973 81.89814 83.83792
46.30777 82.08318 84.93395
46.463387 82.407234 85.63116
46.193726 82.5976 86.714325
45.802284 82.38444 87.558205
45.884193 82.56083 92.4393
46.149223 82.34067 92.53589
46.233547 84.004265 86.69906
45.830547 83.919525 87.35329
45.99752 82.95921 92.32752
46.29538 85.13429 83.67888
45.958504 83.958 92.23641
46.13725 86.14212 82.56617
46.018105 85.81915 83.70199
45.869686 86.10672 84.60736
45.417206 85.52075 86.09403
45.58825 85.253654 91.73061
46.453995 86.86802 76.566216
46.381844 86.75688 81.033485
46.28878 86.41515 81.59166
45.8493 86.84388 82.72252
45.594048 86.855804 83.25677
45.781406 86.679504 91.96997
46.42783 87.26973 76.093735
46.40386 87.40574 76.60786
46.44282 87.72652 77.2283
45.926163 87.4341 81.83377
45.46401 87.66694 83.11472
45.64738 87.212 91.8342
46.4606 88.247795 76.30292
46.45766 88.352585 77.461334
46.49693 88.311775 78.680626
46.3915 88.16655 81.19357
45.795685 88.16632 82.10675
45.628258 88.30106 82.483536
46.441223 89.05135 76.927956
46.487526 89.10287 77.18105
46.16218 90.79583 80.093895
46.325153 90.24642 80.31175
45.456623 90.707115 81.285126
45.73439 90.458534 91.20708
46.453094 90.84204 92.82927
45.990948 91.11268 80.22639
45.418823 91.666046 80.72142
46.037 91.35762 91.26453
46.455822 92.00457 93.38919
46.252514 91.47153 94.64583
46.293865 91.591736 95.227646
46.357334 91.950584 95.88024
45.921818 92.680374 80.45607
45.58998 92.25905 90.183136
46.22189 92.02079 91.08012
46.09522 92.49807 94.80288
46.163784 92.57266 95.35872
46.161045 92.99189 96.271255
45.37393 93.29061 80.95994
46.38071 93.308876 93.63095
46.228043 93.335625 94.79433
46.11143 93.36252 95.41887
46.168873 93.659676 96.51404
46.40705 93.55389 97.348755
45.794052 94.4924 83.61595
45.840103 94.56135 86.75231
46.24607 94.41921 87.25013
46.31811 95.068 88.669624
46.329094 94.73637 94.65875
46.127937 94.516945 95.509476
46.092472 94.48614 96.60385
46.31558 94.48671 97.18849
44.958076 94.941124 83.47832
45.19497 94.91811 84.52404
46.134476 95.468254 88.0986
46.23485 95.69111 89.01262
46.314037 95.135895 94.84447
46.27734 95.44891 95.5881
46.228035 95.40234 96.32447
46.336834 95.148186 97.26167
46.119045 96.43539 87.94993
46.173183 96.55434 88.53647
46.289654 96.58318 88.933
46.40462 96.00684 96.56147
46.15759 96.795944 87.94022
46.285297 96.922905 88.3199
47.0768 73.26514 88.50418
46.644512 73.308426 89.42524
46.63002 74.1889 87.60184
46.630493 73.4679 88.60256
47.48815 73.09157 92.99015
46.96845 75.40177 76.490295
46.92654 75.429596 77.31593
47.13224 74.21733 87.19125
46.67499 74.46049 87.500046
46.41489 74.42545 91.22306
46.890274 74.798164 91.978676
46.938824 76.10358 75.30709
46.7346 75.82601 75.76492
46.546257 75.61369 76.45273
[...]
POINT_DATA 8355
SCALARS features_00 float 1
LOOKUP_TABLE default
0.6826227 0.6717218 0.7534509 0.73045015 0.79195476 0.7739959 0.43640113 0.4457363 0.4652654 0.51173097 0.5951943 0.63897425 0.62041926 0.5591219 0.5365232 0.5997387 0.7415707 0.719711 0.69741166 0.66862595 0.60095036 0.79518294 0.81384337 0.78932637 0.71749526 0.6348607 0.7913082 0.81260145 0.7965747 0.71852016 0.6301456 0.6324943 0.6054002 0.64490974 0.6560741 0.6014688 0.59788716 0.6190548 0.6305146 0.58891183 0.5518104 0.5793499 0.5587814 0.4732393 0.55396265 0.55247843 0.35827532 0.4619596 0.5524388 0.55526227 0.29990473 0.49210638 0.5373843 0.52770114 0.23369712 0.34208065 0.50775576 0.460946 0.2757777 0.2789657 0.32104376 0.45840657 0.23584965 0.29016995 0.35809842 0.47674024 0.53154427 0.5365449 0.30696684 0.3663576 0.4243893 0.5369524 0.54952765 0.30528527 0.31905842 0.37643427 0.16652295 0.2032805 0.22015357 0.2613115 0.25090212 0.26938683 0.27905944 0.16484198 0.3538085 0.34896022 0.32719105 0.43043727 0.37459725 0.6097553 0.5491133 0.48680657 0.7381846 0.594013 0.5272196 0.75205725 0.77071935 0.7595664 0.67299736 0.6039075 0.50162756 0.5141762 0.5395501 0.59333986 0.5826288 0.5383037 0.42019886 0.8662036 0.8323086 0.8065287 0.5257894 0.5271701 0.40615287 0.80452955 0.78972256 0.7722442 0.55149144 0.58340156 0.5267401 0.44396278 0.7295375 0.42707008 0.48609674 0.5314235 0.4997986 0.42594403 0.33869305 0.33174595 0.4366039 -0.08266986 0.42931405 0.43411165 0.31484345 0.44295645 0.45834607 0.40718985 0.08591671 0.26826203 0.51057065 0.4577856 0.20379007 0.45956928 0.43471277 0.09126408 0.3909189 0.13862337 0.17286915 0.48785675 0.40089518 0.0779249 0.10720255 0.18459558 0.43887252 0.08130148 0.07605578 0.08595251 0.104859784 0.14728452 0.25572458 0.52090013 0.46162015 0.054948114 0.063569054 0.112882994 0.08458119 0.07037641 0.22566143 0.28850436 0.46988022 0.47462273 0.14392853 0.09079887 0.19476366 0.2133443 0.15943855 0.18889913 0.18779425 0.04953988 0.20879962 0.25795308 0.22666124 0.2706731 0.075258374 -0.028758824 0.16315521 0.27229682 0.27415106 0.23591053 0.30246282 0.18828644 0.26222095 0.37167338 0.48753822 0.3993223 0.51489425 0.56691235 0.48269612 0.6595683 0.56796455 0.65739965 0.5150756 0.36795437 0.38439953 0.3664065 0.31238884 0.415568 0.41788346 0.3686571 0.27694207 0.92859924 0.91622984 0.8718347 0.8083296 0.37567925 0.33094034 0.20488214 0.9077888 0.90474176 0.85341334 0.7874738 0.7395891 0.34741563 0.28462097 0.18309082 0.85618293 0.80217695 0.73331356 0.708132 0.33726913 0.12387209 0.12183121 0.7771529 0.71452796 0.69527936 0.67696106 0.2325227 0.37752098 0.28571182 0.54347587 0.44905183 0.42113876 0.3826598 0.3198632 0.11750083 -0.014258705 0.24430211 -0.021632306 0.417486 0.38553423 0.22087735 -0.029417785 0.33085316 0.4075647 0.3390008 0.33500025 0.2825686 -0.004454173 -0.049534507 0.35660744 0.29712448 0.20425346 0.030415578 -0.13655104 -0.087702885 0.2844311 0.24448118 -0.1510539 -0.08014878 0.25536868 0.049164638 0.19640496 0.12308496 0.1036131 0.074687265 0.027698915 0.23300725 0.40568662 0.076867156 0.10573814 0.12003662 0.11677596 0.28152683 0.46618217 0.40984547 0.3502462 0.1211193 0.09194042 0.32686704 0.4228289 0.31667197 0.2114788 0.060897782 0.09272534 0.07647878 0.33365425 0.3129319 0.023508862 -0.060131595 0.13482614 0.13949652 0.08913435 0.08567028 0.20559995 0.13602677 0.22765443 0.39068335 0.39392036 0.4094212 0.13609682 0.23852634 0.0789299 0.38103318 0.39956272 0.4340289 0.27964813 0.2550891 0.3843531 0.4151582 0.46988648 0.54955167 0.1632076 0.2164225 0.048299238 0.25539553 0.39093038 0.45988774 0.5361481 0.60214084 0.41455758 0.38785285 0.30294538 0.3154156 0.42788583 0.52722174 0.5953691 0.6702888 0.41999298 0.39429682 0.37064385 0.6638283 0.4414602 0.42555588 0.27834716 0.30608684 0.2320492 0.3264075 0.30763033 0.81920207 0.7296695 0.15541846 0.20597453 0.21634765 -0.0023912936 0.89210075 0.9030614 0.8764702 0.80418146 0.7091875 0.63578427 0.054987364 0.25161165 0.009510193 -0.011796838 0.87986124 0.9019731 0.6630551 0.24902017 0.07932765 0.17043483 0.267474 0.83678085 0.8310885 0.6142355 0.15800753 0.33104008 0.36065626 0.7422071 0.47604737 0.3572061 0.21125418 0.16192776 0.45392093 0.47785735 0.5576377 0.4655695 0.4446519 0.29023916 0.43017283 0.42079607 0.3700353 0.32768568 0.44410896 0.44601977 0.25702238 0.28969032 0.4109879 0.4401983 0.2684825 0.3528602 0.36173856 0.19202445 0.15439814 -0.018352559 0.11867225 0.22840449 0.06872265 0.1180463 0.005637657 0.007532716 0.15585661 -0.10968776 -0.08453624 -0.04263332 -0.126818 -0.2014353 0.010687567 0.36694777 0.27079475 0.08793698 -0.18855725 -0.040021256 0.08545999 -0.0248277 0.50567496 0.5004016 0.40413737 0.2977178 0.19779764 -0.010547567 -0.023552 0.04485501 0.4763363 0.48713648 0.34714288 0.27149352 0.08308626 0.22213289 0.12407221 0.43707043 0.44035304 0.32211837 0.26470858 0.13942216 -0.28498295 0.3925849 0.3385401 0.23545337 0.24557683 0.102959685 0.10148314 0.2651944 0.36484873 0.297475 0.23267046 0.23160638 0.16608706 0.27146482 0.39488113 0.4232379 -0.077271566 0.010699257 -0.0074875057 0.08997831 0.2512938 0.39856598 0.42095542 0.553218 0.04206419 0.014961906 -0.14138177 0.07196556 0.450974 0.5168419 0.6476264 0.110740565 -0.096590154 0.102838874 0.22911867 0.57661796 0.6849772 0.7731196 0.29289195 0.19683777 0.024389893 0.051225044 0.030697618 0.17214233 0.29221195 0.7394236 0.8002333 0.42668676 0.0326183 0.162114 0.2206389 0.3599925 0.4841118 0.50276005 0.71924996 0.772411 0.80729353 0.41394338 0.47358024 0.33698696 0.4809065 0.6042422 0.69921356 0.75508416 0.76778936 0.46318233 0.50521165 0.48918456 0.42562285 0.37742198 0.28402588 0.6892993 0.7461275 0.7755335 0.49369115 0.48287624 0.3999012 0.2716278 0.56500936 0.57858956 0.5398107 0.2836511 0.29249865 0.27921224 0.22081001 0.1746373 0.14417511 0.2515443 0.47822046 0.4532486 0.4907896 0.29700002 0.3037398 0.20046657 0.10038332 0.26432723 0.22500055 0.8366144 0.7681275 0.7200421 0.608562 0.2282337 0.23140575 0.21490242 -0.12956227 0.008841086 0.017142605 0.87078047 0.84987044 0.50206435 0.16154121 0.100862816 -0.041941192 0.02519479 0.8581603 0.43184873 0.10197547 -0.014866758 0.13205919 0.09046124 0.8113149 -0.12487 0.33736792 0.7259413 0.060835823 0.34105936 0.3900955 0.27808714 0.4827042 0.116851866 -0.16896252 0.3369672 0.40341103 0.4068785 0.14644885 0.097059816 0.2936962 0.3652073 -0.07427682 -0.044058993 0.039151587 -0.061465614 0.021540418 0.0030534677 -0.055262044 0.020550236 -0.06980377 -0.22819737 -0.16509904 -0.029063847 0.22423936 -0.08103721 -0.043714896 -0.06781196 0.227787 0.1088153 -0.07854379 0.4506703 -0.22172183 0.34313864 0.40768546 -0.19130711 0.33224493 -0.10155386 -0.07227748 0.30382383 0.29284394 0.26748076 0.33079633 0.15896858 0.17247091 0.41454557 0.15866688 0.13435875 0.10508209 0.60710794 0.68368614 0.16460805 -0.023906685 0.71829677 0.11707903 0.067176245 0.72341293 0.79575616 0.35427403 0.40278482 -0.3387607 -0.14633155 0.8413228 0.48115918 0.5197628 0.51616156 0.23582971 -0.1614672 0.10164249 0.19939485 0.2799577 0.80385506 0.8288332 0.5523076 0.54269254 0.47870103 0.30200315 0.2091094 0.261279 0.514041 0.79805607 0.79879206 0.8156765 0.419662 0.46111754 0.7329229 0.782544 0.79866874 0.43065822 0.46191716 0.44302836 0.41084093 0.41674843 0.5509977 0.5793569 0.6414855 0.56488335 0.6276693 0.3273343 0.34720325 0.3021534 0.42228073 0.52748984 0.56895196 0.5580981 0.25369984 0.27098393 0.27966392 0.2597586 0.2202045 0.12890953 0.064682305 0.46941942 0.56218815 0.51246035 0.47686535 0.3711563 0.30751243 0.2631306 0.27714318 0.102240965 0.08609388 0.08889942 0.48008657 0.4154567 0.30735913 0.27875742 0.22943388 0.35894227 0.58241975 0.22892654 0.18538907 0.2229325 0.16352159 0.09486383 0.83391905 0.78472674 0.6703118 0.5997399 0.5335558 0.47937348 0.16152631 0.14251149 -0.06274323 0.11576724 0.8071289 0.75058055 0.20213306 0.07967073 0.011814032 0.21290603 0.12525746 0.30064312 0.51777303 0.31783438 0.23626521 0.4040081 0.3304448 0.39245075 0.19811095 0.3500628 0.29875606 0.0035038479 0.32386488 0.28430325 0.20314161 -0.011462808 -0.08940395 0.26435196 0.17875272 -0.031399664 -0.019890018 -0.018768111 0.030536639 0.24355513 -0.010079683 0.29484886 -0.13014515 0.026745018 -0.064412415 0.14637095 0.23908699 0.16251637 0.113335714 0.29984665 0.22805458 0.1456645 0.4442794 0.30224428 0.22294837 0.58340514 0.6509944 0.36289138 0.3052909 0.71022123 0.77552974 0.4010655 0.31462353 0.8590405 0.35491443 0.2471568 -0.34724823 0.8757061 0.3491004 0.4761694 0.24812567 0.11392484 -0.26772386 -0.08778335 0.7984953 0.8284648 0.5114889 0.5523441 0.555184 0.45208865 0.2940736 0.16328077 0.1164037 0.7812329 0.79672974 0.8158913 0.5395822 0.5416944 0.49466196 0.32450512 0.5663589 0.8197267 0.8088012 0.4095359 0.38070288 0.34205568 0.2708586 0.3568656 0.6634049 0.5192272 0.5783335 0.6322994 0.65908056 0.5827235 0.60609806 0.41847876 0.44753116 0.46633235 0.44934028 0.45205992 0.34264427 0.36890948 0.35852438 0.36842686 0.3952311 0.3619469 0.32078862 0.07695001 0.38259906 0.44846377 0.49721104 0.5184971 0.51347536 0.37936017 0.3429835 0.29349673 0.079334006 0.17005426 0.5014507 0.47661448 0.41543928 0.38530833 0.37098092 0.42078447 0.3870257 0.2037983 0.3713597 0.15720876 0.15197864 0.23089316 0.49038455 0.067066975 0.12984236 0.053385623 0.21367216 0.27884826 0.27945024 0.68400097 0.43894243 0.32220685 0.3362931 0.31051356 0.56587875 0.379073 0.39176142 0.3728078 0.4279216 0.43864647 0.15566969 0.38872737 0.45040965 0.4566892 0.2879049 0.2560309 -0.024795774 0.19214992 0.37804723 0.2973327 0.333875 0.31487754 0.3314857 -0.24040583 0.26938844 0.28355008 -0.082880914 0.19021179 0.20540169 0.05554056 0.043294124 0.064866036 0.02681695 0.087266326 0.1644961 0.14837621 0.11751385 0.21259335 0.16120906 0.22165504 0.26921573 0.07118818 0.30627173 0.24726212 0.3390269 0.3469723 0.31099728 0.37701786 0.48345307 0.60806495 0.4286028 0.41233152 0.6648337 0.4555053 0.45466262 0.54632205 0.6759672 0.50567096 0.45944935 0.7033256 0.82326305 0.42185155 -0.057354532 0.4197982 0.5162729 0.6445074 0.7322053 0.80373025 0.45394564 0.42114466 0.23680493 0.024036527 0.013977259 -0.04190931 0.049261563 0.23901552 -0.021584965 0.661793 0.6931213 0.7253371 0.76343477 0.49250433 0.4968453 0.45914093 0.14452912 0.30772412 0.17681435 0.2196002 0.22142929 0.39893472 0.6090334 0.5192214 0.50391805 0.53544396 0.62600935 0.6348252 0.57702684 0.61184144 0.49775162 0.53636247 0.5614525 0.5719637 0.42003617 0.45444494 0.49267882 0.5237535 0.5437067 0.52204376 0.46024042 0.38659424 0.38165686 0.4018262 0.16495427 0.29764226 0.30487904 0.3682639 0.4293111 0.44644487 0.44914365 0.44589233 0.43230385 0.40226868 0.00969401 0.058782816 0.1642907 0.37243754 0.44332093 0.43239114 0.23578812 0.41249335 0.43116862 0.082094654 0.3614494 0.13434541 0.18375398 -0.18623815 0.24150214 0.20440972 0.28730673 0.29842126 0.34329727 0.42541838 0.3888135 0.11953151 0.06281803 0.45221448 0.18193454 0.17165354 0.38383883 0.42675996 0.38485077 0.214065 0.2549113 -0.40096542 -0.3085266 0.10865735 -0.3994049 0.22804965 -0.26875123 0.081831574 -0.00054451823 0.0025541112 0.292363 0.22673124 0.087613754 0.32029662 0.28902328 0.33447415 0.3096167 0.22161098 0.12207028 0.22847396 0.13320294 0.24085951 0.33361506 0.24354179 0.43785483 0.21428193 0.41192997 0.50224406 0.20979756 0.50811124 0.4947778 0.106683254 0.24343462 0.4642783 0.59743 0.49908778 0.45287007 0.27244577 0.27325255 -0.0105228275 0.46465784 0.5531362 0.1665856 0.26162177 0.29007417 0.25059938 0.15567186 0.10567265 0.38802332 0.31242234 0.31652665 0.06695272 0.09803271 0.11345824 0.15170999 0.26563588 0.15596688 0.15338604 0.15170234 0.14388561 0.061002858 -0.071061485 0.23274639 0.39653122 0.35130042 0.46606463 0.59326005 0.5950378 0.5283666 0.5546276 0.59059805 0.50255203 0.55830383 0.59446657 0.6012967 0.41695794 0.46933216 0.53338623 0.44326782 0.40290463 0.3823944 0.39248052 0.3277457 0.054881603 0.17892165 0.21824643 0.24365745 0.26011196 0.3356028 0.39150202 0.41578543 0.44314376 0.42830437 0.06590232 0.13884927 0.16588977 0.17779496 0.36965823 0.4007984 0.41575938 0.42627248 0.44023305 0.028549671 0.3718424 0.40043974 0.17768747 0.20897257 0.174315 0.2977248 0.045474432 0.11957531 0.03377915 -0.0850616 0.1385715 0.20906982 0.03112357 0.20733635 0.162323 0.24446723 0.27592322 0.18021148 0.4217438 0.5699144 0.5228002 0.3929658 0.16272792 0.40794125 0.6055325 0.5013844 0.28806564 0.14902109 0.22876269 0.2907427 0.38557655 0.57622766 0.5255489 -0.24027064 0.22842519 0.53495646 0.52324086 0.3170846 -0.025135033 0.20176677 0.27542925 0.28186163 0.024412569 0.02406228 0.16318463 0.24443573 0.28816026 0.27131975 -0.038721405 0.1861349 0.301462 0.2821962 0.24513504 0.38835728 0.24926832 0.28484872 0.38605478 -0.1539227 0.32434672 0.29182568 0.093420565 0.12688303 0.11250681 0.102872565 0.07750766 0.18061669 0.24959746 0.17551152 0.19826111 0.42750466 0.4070122 0.14916809 0.16191716 0.44681796 0.464446 0.1160706 0.4960959 0.0797837 0.5006211 0.42547104 0.4291198 0.32995665 0.074483156 0.1225164 0.1393047 0.031046983 0.099137604 0.13831528 0.24437389 0.15214545 0.13310397 0.09018302 0.025185913 -0.14746031 0.4128825 0.343168 0.18676686 0.44404757 0.5502152 0.54433745 0.4933475 0.5492988 0.56114393 0.5187029 0.57183886 0.6064688 0.60472447 0.34609067 0.40860823 0.47287613 0.5178485 0.5559227 0.43912965 0.36883596 0.3074348 0.32931218 0.36043942 0.37013954 0.36009255 0.35946035 0.37249705 0.2182633 0.20558317 0.4100067 0.39359295 0.4196217 0.4043461 0.0396042 0.034181364 0.18743193 0.11597927 0.1058595 0.12048902 0.4142084 0.40002918 0.38583076 0.4019366 0.34299767 0.305448 0.38747722 0.2073951 0.23332871 0.07115134 0.13762316 0.13987705 -0.0064795315 0.23162383 0.22318104 0.067400225 0.24948615 0.2148271 0.12538223 0.58758205 0.5398961 0.4359097 0.3279058 0.14317329 0.3143893 0.30315304 0.53078353 0.6233169 0.60247666 0.52166855 0.2852462 0.43244386 0.48987347 0.51923853 0.6266395 0.15613069 0.33882457 0.3586548 0.43024582 0.4601362 0.56672174 0.54749095 0.22714865 0.23314266 0.30250582 0.35002172 0.37160534 0.52039814 0.5057582 0.19505975 0.061014373 0.1838256 0.18601097 0.468351 0.43418765 0.38245505 0.15592493 0.05905448 0.3751716 0.39132893 0.2284076 0.29402706 0.20309222 0.19940849 0.38878798 -0.28894123 0.3091185 0.26141232 -0.14900385 0.13408485 -0.121650755 -0.00055334903 0.17416209 0.054054875 0.32657647 0.32115757 0.06596051 0.11883628 0.4129815 0.44107205 0.06409044 0.46747494 0.051002912 0.5088881 0.48844483 -0.051991817 -0.1503406 -0.17921636 0.07171203 0.09294148 0.4966588 0.43144053 0.29332423 0.05153248 -0.15170118 -0.079765745 -0.09333336 0.072917975 0.113640234 0.24742031 0.20008624 0.12989202 0.13145779 0.33123636 0.15631281 0.3325548 0.38422436 0.22585857 0.26174486 0.45879903 0.50036037 0.38089547 0.48004597 0.51362485 0.7915163 0.72985595 0.6480284 0.57909936 0.66580117 0.71248686 0.6304656 0.56261706 0.5026655 0.48719028 0.5957816 0.5115825 0.3970789 0.5262903 0.55746245 0.4799214 0.03759259 0.29198146 0.2535017 0.36005428 0.40314028 0.15752372 -0.12014135 0.34381354 0.34021354 0.31679916 -0.032753784 0.18430883 0.20032734 0.038801502 -0.1712718 -0.23375306 0.31038958 0.3517915 0.33034837 0.31552848 0.27661163 0.21733275 0.16088322 0.11214433 0.045638077 0.028215092 0.20222718 0.16678956 0.14170739 -0.038974695 -0.0019822568 0.19358608 -0.01713034 -0.1209658 0.5950062 0.58255446 0.51706254 0.40457445 0.15295775 0.4646976 0.5586883 0.5475257 0.6025635 0.53597474 0.5070363 0.5893467 0.60193837 0.46726784 0.4794463 0.5548214 0.36200488 0.5004385 0.4791983 0.25894997 0.33560807 0.36163288 0.45548317 -0.041115694 0.17628118 0.3379863 0.3694234 0.44134444 0.43139672 -0.026170958 0.039823577 0.25869557 0.3816758 0.40525913 0.38101166 0.03249705 0.11268007 0.07711673 0.0836529 0.138378 0.30187 0.3989539 0.4408024 0.33893448 -0.2804846 0.03020665 0.042594265 0.1189498 0.13407832 0.19063464 0.2970561 0.43529472 0.44095516 0.23193021 -0.23674569 0.5702274 0.42913738 0.18705648 0.19796185 0.21099824 0.17773432 -0.280985 0.60875356 0.6379377 0.62240815 0.5466497 0.35358298 0.07303998 -0.2814368 0.73477703 0.75167644 0.65620583 0.5301502 -0.23113137 0.77459145 0.6709249 0.30916828 -0.09924227 0.355821 -0.042751446 -0.037888616 0.4421119 0.020257905 0.512131 -0.24206507 0.5259557 0.48676395 0.33820057 -0.023897301 -0.2907775 -0.32054377 -0.0073274 0.040809494 0.12920861 0.21705592 0.1503694 0.11764852 0.15297216 -0.024943277 0.22296531 0.303246 0.36344713 0.37964743 0.4228418 0.44678468 0.4224034 0.8316498 0.77106893 0.6950379 0.75322354 0.83067596 0.74947995 0.66068697 0.58128715 0.5053725 0.5449977 0.4708914 0.39560848 0.42085323 0.26501623 0.046634324 0.16183434 -0.24154824 -0.21576159 -0.2151483 0.16180256 0.24441174 -0.14346933 -0.24380249 -0.23210835 0.23654866 0.15608327 0.18941835 0.13083155 0.075514354 0.1086967 -0.12778106 0.12905835 0.14662531 0.08965455 0.13058455 0.49416184 0.4093532 0.088490784 0.14259422 0.56103504 0.5667902 0.48880476 0.51347846 0.48237047 0.5693401 0.48370403 0.5772891 0.56195515 0.427376 0.42087722 0.54073286 0.42994824 0.48390603 0.4329126 0.43161803 0.47365642 0.41856396 0.39628196 0.43973464 0.43141204 0.3956932 0.32788706 0.38067943 0.40631187 0.4224753 0.38891092 0.14818305 -0.24902874 -0.14525667 0.02564311 0.06333226 0.4190957 0.38138592 -0.20806333 0.5440657 0.24568993 0.32655618 0.41134328 0.40856048 0.123661354 -0.27529603 0.55827343 0.37795997 0.2849606 0.2725795 0.05502311 0.009134144 -0.2306352 0.6250299 0.6748699 0.47701138 0.41142428 0.04954434 0.75925595 0.7639524 0.6390377 0.5519681 0.3207211 -0.081494614 0.3879118 -0.054114375 0.4171345 -0.0072766542 0.47888476 0.5047243 -0.035561465 0.52786076 0.4952759 0.37099186 0.06700434 -0.21507716 -0.26475665 -0.14893912 -0.04385961 0.11621379 0.15670766 0.14902654 -0.12434012 0.069830745 0.13704051 0.28605726 -0.16696446 -0.16656901 0.37720102 0.43083268 0.42698455 0.38353145 0.4225816 0.40525585 0.82604706 0.76590705 0.68661934 0.77282405 0.6365495 0.5701902 0.6432721 0.63661015 0.58225024 0.4582815 0.43625605 0.49191037 0.4654571 0.5914675 0.56223273 0.3679186 0.37485936 0.36501846 0.30117947 0.25937223 0.5712003 0.13389125 -0.11349965 -0.077729024 0.04053103 0.1326677 0.28019047 -0.25755405 -0.21720268 0.18476191 0.3708674 0.46007556 0.5321171 0.55481195 -0.2485824 0.12638721 -0.19780077 -0.23459166 0.32712123 0.48114967 -0.5045544 -0.3481874 -0.2589396 0.3058192 -0.15676057 0.05378533 0.064470544 -0.0539565 0.04709032 -0.028860074 0.07753511 0.12001763 0.16965634 0.16618042 0.074510366 -0.13294902 0.1374218 0.07985628 0.49707842 0.45053303 0.060149178 0.09699051 -0.11136549 -0.03310448 0.5149448 0.26901865 0.43475503 0.473294 0.40535867 0.43120414 0.5087672 0.43920505 0.50757146 0.44956917 0.46886522 0.55456704 0.43410283 0.36582226 0.5902973 0.35645247 0.5286421 0.20548743 0.10430465 -0.1979624 0.38646147 0.43702054 -0.20348491 -0.10781333 0.3657413 0.3774028 0.045427646 -0.18932284 -0.13620691 -0.06251736 0.33248588 0.33913758 0.07420866 -0.17890298 0.15399775 0.32634217 0.015341336 -0.150836 0.3032035 0.26261777 -0.020036021 0.4369741 0.40837562 -0.088793814 0.69717 0.69145596 0.60010505 0.4797933 0.4149035 0.29263768 -0.15420121 0.365013 -0.03960023 0.37342653 0.31338644 0.41520244 0.3870945 0.4107285 -0.019712701 0.48315853 0.22147535 -0.06010451 -0.050030913 0.36344203 0.55121624 0.11033562 0.19944859 0.34262857 0.47903496 0.612823 0.6501894 0.14524178 0.15708543 0.15535565 0.1141064 0.07146486 0.34326562 0.42982984 0.49243248 0.5543997 0.08798814 0.08248674 -0.12646163 -0.007550396 0.073673435 0.42633766 0.45862964 0.34557223 0.39183846 0.33876765 0.37606245 0.38298863 0.7904614 0.72999036 0.64337826 0.5083108 0.53315204 0.5294882 0.77549756 0.51680946 0.4626675 0.6541288 0.6589068 0.6363837 0.59070265 0.44489813 0.5117112 0.49818754 0.3760441 0.23524843 0.34440655 0.5660868 0.6169778 0.4265349 0.1385723 0.038200796 0.25385326 0.36052895 0.20739353 0.061951056 0.094815545 0.4650911 0.6222633 0.55171895 0.54750043 -0.049837526 0.18601544 0.16030686 -0.1729463 -0.208