# vtk DataFile Version 2.0
Really cool data
ASCII
DATASET POLYDATA
POINTS 2748 float
-0.5705668 52.597717 3.7763925
-0.5722425 52.53985 4.159156
-0.542519 52.95742 3.7097893
-0.5509918 52.93283 4.137422
0.24827793 51.36007 4.295651
-0.09550393 51.999752 3.2025228
-0.24817583 51.90868 3.714436
-0.26516393 51.856377 4.307665
-0.14814901 51.831387 4.92161
0.24170049 51.782803 6.1308265
-0.21714169 52.53857 3.0551145
-0.4652168 52.584946 3.4717557
-0.459293 52.397587 4.505005
-0.2549604 52.54242 5.1898203
0.13205865 52.46777 6.313649
-0.1197215 53.005924 3.0319953
-0.31511027 53.270332 3.6233945
-0.32976443 53.28902 4.364086
-0.17830145 53.328342 5.0706806
0.11327821 53.272797 6.1981215
-0.13232163 53.981922 9.832546
-0.106447816 53.936382 10.508895
0.12600762 53.980095 11.200765
0.085627615 53.729027 3.6832457
-0.13680756 53.698322 4.495462
0.0053203404 53.717937 5.0856
0.058240235 54.601536 8.809258
-0.2347439 54.556858 9.580309
-0.36232063 54.774185 10.398575
-0.014093667 54.532375 11.269274
0.23320149 54.898186 11.647259
-0.042595685 55.300743 9.020879
-0.3117853 55.468 9.776114
-0.38356778 55.313236 10.474984
-0.026394516 55.546223 11.270283
0.24028803 55.366123 11.725653
0.041434288 56.089954 9.704091
-0.0713104 56.151436 10.537533
0.11188519 56.13823 11.048684
1.3298775 49.288574 9.887821
1.2869422 49.26111 10.17586
1.3116829 49.798042 9.146998
1.0522976 49.767387 9.705524
1.0632007 49.70668 10.487409
1.1770833 49.85536 11.010613
0.6126549 51.361168 3.639269
0.5334593 51.22934 4.317242
0.80612254 51.01264 5.6060023
1.0113722 50.896496 6.052551
1.2029219 51.145496 6.837325
1.1736009 50.798954 9.133852
0.79279524 50.34593 9.848666
0.8605356 50.3433 10.48689
1.1260881 50.494026 11.208122
0.5949808 51.88394 2.9264243
0.52006716 51.512455 3.3736696
1.1790712 51.78555 7.3961973
1.0802851 51.319065 9.715992
1.2340059 51.5028 10.4554825
1.2440444 51.244534 11.047026
1.0591953 52.634712 2.4329162
0.52815056 52.52128 2.6666162
0.92128134 52.897705 8.541425
0.8975108 53.4112 2.7167623
0.41014135 53.70923 11.383112
0.4779334 53.987877 11.637392
0.61862004 53.727882 3.1378837
0.63285434 54.15292 4.015879
0.40305626 53.967937 4.553483
0.68967134 54.150043 5.6376286
0.5942116 54.10621 6.309017
0.86754 54.481773 7.680951
0.59012294 54.645607 11.819231
1.1209316 55.722137 8.033378
0.5753229 55.53565 11.763542
1.3263572 56.72548 8.206388
0.84556234 56.425587 8.694592
0.42490816 56.579514 10.566702
0.5978632 56.235065 11.417983
0.9352592 56.095566 11.760671
1.2409294 57.126625 8.682165
0.8686209 57.00838 9.502421
0.59341264 56.705357 10.937641
2.2923408 48.336212 10.300118
1.6607251 49.016678 9.763601
1.790685 48.799545 10.487748
1.9315052 49.020374 11.34874
1.6110408 49.728428 8.995158
1.4466726 49.4825 9.344021
1.5819299 49.537262 11.508804
1.9298668 49.61688 12.133886
1.5610638 51.262264 3.474576
1.5937873 50.76863 5.7124424
2.1198783 50.921524 6.883812
2.135309 50.671658 7.3841786
1.5531272 50.70108 8.859065
1.8860769 50.54307 12.34465
2.1927521 50.494434 12.672437
1.6487675 51.80853 2.7456198
1.8881572 50.995754 12.186207
1.5609764 52.672153 2.3227158
1.6131823 53.194126 2.3597713
1.3903651 53.440094 2.5544195
1.8429862 53.91603 2.8956983
1.2852414 54.233154 3.7876801
1.48701 54.537907 5.1330476
1.3225527 54.524956 6.2071433
1.4058858 54.327286 11.935754
1.6874416 54.667114 4.766764
1.7333459 54.658714 5.6070495
1.9363749 55.215355 6.726995
1.1662966 55.166653 12.056686
1.4675171 56.776802 7.9810147
1.6493592 57.58661 8.487866
1.4432228 57.55338 9.405514
1.2995319 57.151653 10.304839
1.6408743 56.84393 10.899112
2.3815837 58.54702 7.990812
2.0544357 58.043755 8.203039
1.9924188 57.963512 9.266695
2.9930058 47.957645 9.678421
2.8502126 47.934174 10.25248
2.7001987 48.262478 10.97985
2.7163541 48.84056 8.84146
2.3554945 48.389206 9.970594
2.3207462 48.526825 10.966496
2.7033234 48.958546 12.12212
2.4983141 50.007095 8.475382
2.3754783 49.547626 12.429324
2.5113873 49.865074 12.724892
2.019861 51.16003 3.5206692
2.2977948 50.86365 4.929931
2.1040378 50.661484 5.5334024
2.110955 50.702854 6.21985
2.2914627 50.547794 12.750971
2.4449296 52.227688 2.387242
2.3241107 51.868958 2.64285
2.6423337 51.024635 12.675713
2.2974613 52.60795 2.2940488
3.0835094 51.889786 12.071933
2.3210347 53.26864 2.327978
2.2446086 53.227257 11.461025
2.3574028 53.919567 11.824493
2.2981865 53.966118 2.9358428
3.0405288 55.84334 5.47388
2.4646108 55.184643 12.153812
2.743068 56.06624 6.145995
2.6419103 56.366627 11.43782
2.4403615 55.812077 11.884429
3.078415 57.3552 5.665785
2.5720875 57.73943 6.7659035
3.2991407 58.413208 5.933868
2.884017 58.37623 6.693348
2.516171 57.744328 10.308899
2.933802 59.109806 7.7739787
2.9916582 59.12867 8.371833
3.0387168 58.953766 9.121772
3.968241 47.456276 10.040489
3.6022887 48.033142 9.033999
3.4444857 47.663773 9.758041
3.8071694 47.94868 11.4572315
3.5762613 49.00002 8.25071
3.5767694 49.84693 7.7795553
3.6567905 51.01256 5.5444756
3.217774 50.582016 6.6566815
3.5110135 50.599987 13.082789
3.4292629 52.184185 12.272857
4.3700438 53.336514 13.247396
3.7385702 55.25783 4.289733
4.209189 56.858887 3.0569694
4.0101633 56.469006 3.6782997
3.706388 56.60695 11.22415
4.024194 57.787407 2.8538926
3.2948503 56.77203 11.105421
4.026176 58.29498 2.8594308
3.6100237 58.294777 3.674306
3.5021305 58.033928 10.129189
4.2864327 58.9728 2.8437583
3.9195416 59.0979 3.6551492
3.8088133 59.172485 4.393559
3.7200828 59.311687 6.8617773
3.4577844 59.421017 7.6469755
3.4252758 59.438663 8.36457
3.6308115 59.223347 9.204725
3.849925 58.843193 9.726086
3.947887 59.65699 7.7510495
3.921975 59.62396 8.58606
4.794132 47.624203 9.11509
4.1491194 47.638172 10.990913
5.1565003 48.181274 12.312629
5.260445 48.185677 15.805398
5.1126986 48.45186 12.648699
5.254051 48.810963 13.48084
4.933073 48.865223 14.929566
4.8501005 48.635918 15.5999565
4.976292 48.76024 16.284636
5.354462 48.730034 16.969734
4.1529727 50.293777 6.736525
4.312161 49.308666 7.951054
4.7054315 49.449474 15.654846
4.827097 49.30117 16.268595
5.344937 49.481228 17.281382
5.2289066 50.861885 1.9223516
4.982449 50.79001 2.551353
4.9604206 50.59879 3.326604
5.031749 50.76949 4.5479527
4.6510906 50.851948 5.6049986
5.0144615 50.020782 14.776374
4.7076216 49.842545 15.68015
5.1238236 50.037846 16.560293
5.3770475 50.147778 17.056757
5.156806 51.933155 1.5619532
5.046339 51.955017 14.458219
4.8973036 52.41669 1.6798233
5.193909 52.911995 14.916418
4.473405 53.31491 13.553865
4.746018 53.142704 14.455782
5.2159185 53.486084 15.045069
4.5497794 54.38961 13.138382
4.89804 54.089596 14.35985
4.760309 55.083073 3.1492562
4.804169 54.83955 13.032098
4.847573 56.630116 2.7638226
4.577408 55.846043 12.262176
4.7385454 58.017513 2.2741065
4.680576 57.490356 2.4938035
5.0429587 58.424534 2.0425594
4.5831437 58.626328 2.3974557
4.697037 58.146637 10.121025
4.6699247 59.21707 2.5994818
4.3726397 59.54884 5.609566
4.476502 59.33904 9.381723
4.639096 59.977894 3.7452843
4.809226 60.116497 4.3737445
4.407999 59.782066 8.473449
6.4155917 41.544163 8.445023
6.388872 41.762253 9.6009655
6.3466835 42.267 8.497551
6.239851 42.38854 9.366773
6.3720512 43.012478 8.662537
6.2707787 43.612095 9.48933
6.373697 43.409332 10.137188
6.2005134 44.325844 9.697505
6.238072 44.744625 10.261893
6.320312 45.006477 9.526942
6.0862503 47.26813 8.390996
6.061661 46.902496 9.234228
5.3865647 46.85954 10.681399
5.9386377 46.815636 11.595357
6.2874374 46.75049 13.872127
6.1763825 47.053432 14.350061
6.3050356 48.101196 7.162606
5.697413 47.805866 8.148962
5.7314005 47.77237 13.616952
5.6020126 47.661907 14.357271
5.787123 47.71344 15.740532
5.634736 48.0939 16.392954
5.9508333 48.093098 16.93915
6.287972 48.33967 7.262229
5.6655383 48.8053 17.472395
5.873532 48.908737 17.855253
5.9029465 50.156765 1.9809693
5.6696095 50.07025 2.491642
5.7795553 50.073032 3.479186
6.2318115 50.12012 4.5127945
5.4926863 49.560116 17.615894
5.9549804 49.588844 18.234858
5.632161 50.779667 1.5689913
5.4189367 50.346893 2.282652
5.8981795 50.509563 4.2597117
5.7485094 50.282845 17.598587
6.011436 50.18023 18.145521
5.7198815 51.81538 1.1362795
5.4264107 51.402706 1.4914433
5.6052666 50.871723 15.190178
5.7929544 50.763092 16.384113
5.9949317 50.697422 17.32836
6.2709084 52.856663 0.20192587
5.7399936 52.26708 0.96722656
5.340626 52.77204 14.866892
6.200766 53.945583 -0.23023728
5.639132 53.647926 15.274428
6.422974 54.628834 -0.59725285
5.7777843 54.457672 1.1407982
5.3683214 54.673534 14.498752
5.6599517 54.251392 15.058914
6.4627357 55.14555 -0.5864638
5.9278874 55.574142 14.219579
6.485723 56.651363 -1.196773
6.216998 55.864002 1.1282209
5.801854 56.14701 1.9617718
6.081136 56.381847 13.828872
5.8664746 57.866405 1.5641418
5.714664 57.363487 10.272855
5.493252 58.641342 1.8287221
5.2001038 58.174812 9.841432
6.152503 59.178574 1.4854109
5.002373 59.454113 9.040375
5.564089 60.09578 2.4278364
5.2185874 59.741627 6.460782
5.1490355 59.665703 8.15334
6.424585 64.59737 2.6973562
6.4071784 64.51184 3.513068
6.428835 64.887955 3.297615
7.2031703 40.07271 7.5271945
7.1197457 40.100758 8.329668
7.16248 40.281876 8.886325
7.1573834 40.55423 7.0181217
6.8485174 40.60418 7.6741996
6.773333 40.57727 8.416716
6.7589464 40.946453 9.167334
7.0211897 41.20542 10.041147
7.110204 41.639492 6.82372
6.7425427 41.503372 7.485876
6.5074 41.442715 9.538551
6.6383433 41.693867 9.995523
6.6669693 42.146053 7.6289096
6.6235495 42.63498 10.444074
7.0415435 42.97827 11.148902
7.1542974 43.090496 7.1316576
6.6735787 43.112553 7.9341574
6.475273 43.26873 8.602224
6.959202 43.682323 11.400564
7.190357 44.37918 7.7337146
6.6303897 44.678764 8.933469
6.549889 44.28096 11.329419
7.213037 44.37341 12.403353
6.6808476 45.28588 8.819547
6.59766 45.532333 11.712669
6.631461 47.21478 7.6950407
6.824409 46.30504 8.407871
6.533726 46.326733 13.619237
6.543074 46.38943 14.333198
6.7218814 46.79091 15.445491
6.8687134 47.19416 16.102104
6.9856925 47.97036 6.5385695
6.4688525 47.72069 16.582396
6.7140703 47.96985 17.237911
6.6625166 48.337208 17.793272
7.1255126 48.975643 5.5785537
[...]
POINT_DATA 2748
SCALARS features_00 float 1
LOOKUP_TABLE default
0.8047811 0.7742348 0.786947 0.7547848 0.7587281 0.88179684 0.8371445 0.7867647 0.7273732 0.5918226 0.8972944 0.8383711 0.7486105 0.6836545 0.6077934 0.8867953 0.7778988 0.70489603 0.63114685 0.52305084 0.59845865 0.63503665 0.6303324 0.7315017 0.6393863 0.5670959 0.49319178 0.63459635 0.69992214 0.6629783 0.6505537 0.5259634 0.67172945 0.7166861 0.69375145 0.66364706 0.60433066 0.6885957 0.6950209 0.5283095 0.5402341 0.48895133 0.5403562 0.5756948 0.6084415 0.80332565 0.7193552 0.49954742 0.38608426 0.294413 0.48562437 0.56579536 0.60154414 0.63456106 0.88607097 0.84520507 0.22701135 0.5339283 0.5618833 0.59679246 0.8208852 0.914603 0.065614805 0.82498837 0.57011753 0.586162 0.8166301 0.5968409 0.5477056 0.36238104 0.27083358 0.10871461 0.6052996 0.2056392 0.6485477 0.26029238 0.3581278 0.63709813 0.66576105 0.63392377 0.33793643 0.46801263 0.6414673 0.4723453 0.49879318 0.5171224 0.55673414 0.44745305 0.49188322 0.6055765 0.597683 0.7348113 0.32298404 0.16645226 0.043835342 0.41622037 0.5417505 0.49221206 0.7755768 0.49917284 0.7593937 0.74417067 0.757934 0.7004789 0.6093489 0.28371188 0.124743834 0.5081333 0.28475472 0.1305007 -0.09809417 0.5759111 0.22043927 0.3209789 0.4047438 0.5305896 0.53858227 0.3780504 0.33938205 0.39856386 0.42257974 0.43348858 0.44639164 0.39700764 0.46107626 0.48854077 0.51946807 0.24091716 0.563571 0.5168451 0.67225516 0.31949586 0.24823079 0.19278975 0.46903294 0.66760564 0.6937435 0.35878158 0.6889267 0.10551263 0.664514 0.21555886 0.33719617 0.63658655 -0.03899009 0.453511 -0.052322607 0.41089064 0.470826 0.09329008 0.206724 0.2617412 0.3186755 0.42700225 0.41661286 0.44942462 0.47637093 0.36785358 0.34869015 0.4019789 0.31217074 0.22355807 0.016985819 -0.052264176 -0.03498122 0.2993126 -0.054377176 0.19228753 -0.011254035 0.18629411 0.13163286 0.17691046 0.29373804 0.27960497 0.33421254 0.38173562 0.4159093 0.36844504 0.4265805 0.3931579 0.40860045 0.43929386 0.4703951 0.4980374 0.49520096 0.45700324 0.49115455 0.16143116 0.29248855 -0.04996799 0.4576473 -0.046073988 0.046552815 0.42717177 0.49724495 0.57561314 0.6297798 -0.15080588 0.035394207 0.5496864 0.5951919 0.68590057 0.44409668 0.45241952 0.37386122 0.050887328 -0.20043981 0.4294555 0.5330032 0.5933321 0.6420028 0.28618884 0.0645328 0.20925564 0.2674609 0.23687994 0.27552217 0.3015272 0.26285344 0.29872173 -0.0066157877 0.2322282 0.1204878 0.023378976 0.25754946 0.2252596 0.25251108 0.30503255 0.4015426 0.34498638 0.33213228 0.5092784 0.41308245 0.30725193 0.49281344 0.6309874 0.57299143 0.5287193 0.52494824 0.4210719 0.3840857 0.43040788 0.32382265 0.33508238 0.214133 -0.12417707 -0.10867275 0.120318584 -0.10004121 0.09556158 0.16853878 -0.01775056 -0.062267106 0.025254283 0.15275717 0.38262767 0.50034267 0.55254114 -0.004628065 0.68878305 0.7338122 0.46641564 0.46747556 0.38335282 0.16665348 0.71566224 0.7516401 0.41894218 0.47885823 0.22660321 0.6895388 0.725615 0.2820601 0.34814852 0.29317635 0.51684284 0.6268412 0.17398961 0.23705646 0.25113684 0.1325476 0.30210727 0.11276983 0.04301273 0.28015065 0.29887304 0.11817823 0.13745356 0.3276601 -0.052121166 -0.032306038 0.06671008 0.117445245 0.15719779 0.2181167 0.38648915 0.124689534 0.50404817 0.31423968 0.38899854 0.48025894 0.67207277 0.65507877 0.68447834 0.806071 0.7693634 0.7070075 0.75324655 0.7516625 0.72306156 0.64799 0.53402394 0.60205114 0.63672245 0.59575665 0.5368142 0.5207353 0.45873907 0.35405666 0.3673544 0.380654 0.3801374 0.3109269 0.24320114 0.22330499 0.3262693 0.21607943 0.089065015 0.06882897 -0.08377636 -0.1422863 0.050462298 0.17868584 0.27451667 0.35458922 0.017515026 0.45017636 0.5579835 0.68886137 0.06742675 0.75570345 0.43085486 0.42790547 0.38379624 0.75573146 0.7514254 0.7131184 0.7222687 0.24087599 0.45652342 0.6467434 0.6317562 0.11758651 0.13359115 0.25033796 0.13182202 0.130095 0.19118387 0.19809762 0.22056286 0.1263959 0.36071193 0.38078827 0.27063033 0.45709038 0.43927002 0.25982276 -0.061079726 0.27488863 0.36929458 0.470771 0.45956963 0.40420163 -0.043460958 0.32055396 -0.013829835 0.42425638 0.3956536 0.11374532 0.28517395 0.12750736 0.6404692 0.6236464 0.48195785 0.48477817 0.711003 0.71140254 0.62597114 0.61257887 0.6533171 0.72038984 0.7281408 0.71765375 0.6950402 0.6642534 0.71610814 0.71513927 0.6910425 0.765576 0.8202261 0.8321093 0.79863083 0.6784111 0.6765225 0.747988 0.59598505 0.54838103 0.6006634 0.45663902 0.3125402 0.51082456 0.41302925 0.30814967 0.2535668 0.35479367 0.24250606 0.21744913 0.30469853 0.2374088 0.22576755 0.20299797 0.6017278 0.6290184 0.67135787 0.67946386 0.29911456 0.096621275 0.73672646 0.7422069 0.5662116 0.63486785 0.37959588 0.3290938 0.7117839 0.3602282 0.46821275 0.5103846 0.54249734 0.67221004 0.68976057 0.3056974 0.35892665 0.40679106 0.36683086 0.2990742 0.019698247 0.32864562 0.3065052 0.32635877 -0.0647816 0.25107285 0.18736172 0.18829876 0.13373938 0.14811656 0.15530717 0.19080494 0.44237733 0.42495674 0.4665154 -0.40992922 -0.042875573 -0.05616738 0.43701065 0.45476744 0.5263446 0.4547362 0.27333936 0.05953253 0.13325877 0.28946042 0.4606996 0.46907878 0.5082583 0.5328112 0.41323176 0.31646997 0.32118362 0.3216073 0.47916228 0.49122107 0.10319172 0.20958562 0.2830622 0.39977533 0.32243404 0.444832 0.44095778 0.5644113 0.69620043 0.4354841 0.69258606 0.6967935 0.6129576 0.52572787 0.67658734 0.6936376 0.6834825 0.64309406 0.6287151 0.77642715 0.83413213 0.8341141 0.7755931 0.6369666 0.6893784 0.72230494 0.5592947 0.83143985 0.62865996 0.64872646 0.36482373 0.3002106 0.71418583 0.7941365 0.8536203 0.5361 0.53960156 0.21573885 0.1938338 0.71390057 0.7931111 0.81467557 0.39550596 0.21184379 0.72283286 0.7443583 0.26422852 -0.08757863 -0.00508222 0.20061763 -0.033839792 0.6801612 0.695202 0.69644916 -0.02293405 0.33749673 0.6285509 0.6894754 0.6826917 0.078822754 0.50464755 0.48413098 0.6608062 0.30448213 0.3488586 0.43265927 0.4972563 0.54267323 0.33571324 0.28524056 -0.21113351 0.122921996 0.278028 0.37221277 0.3793292 0.31987545 -0.034783244 -0.018349376 0.30638278 0.015085045 0.19139186 -0.33032113 0.4375056 0.5280539 0.3326171 -0.6042062 0.5585952 0.3420686 0.35630518 0.14829603 0.5342008 0.5699255 0.35426396 0.33521622 0.3621411 0.15936467 0.46735796 0.5237252 0.5628679 -0.08020738 0.36443138 -0.027482942 0.07985307 0.4396 0.44021648 0.19490771 0.48937237 0.4834615 0.46629322 0.4589752 0.50150836 0.307705 0.6181699 0.59198546 0.47007975 0.45431378 0.62501895 0.6074345 0.61044 0.55459464 0.5191939 0.78005743 0.81009316 0.7379893 0.6815908 0.65021896 0.9151701 0.96001625 0.7012935 0.739849 0.4522032 0.69629365 0.85253054 0.93591106 0.94710624 0.6737188 0.21573237 0.20942459 0.4791425 0.68314093 0.90542877 0.8603874 0.5411874 0.4099531 0.38383856 0.3781917 0.62156105 0.74730134 0.4512316 0.112941034 0.3147559 0.3217756 0.64703596 0.6372953 0.2846825 0.22580317 0.20949496 0.25173134 0.25253642 0.4363973 0.5150982 -0.04527174 0.24012423 0.6988363 0.7249594 0.6309561 0.6896855 0.13924608 0.10349229 0.2637427 0.30941355 0.29056016 0.24766733 0.521907 0.3232061 0.43216026 0.3964621 -0.07024229 0.41040415 0.37065524 0.016149692 0.3978461 0.3463875 0.31161228 0.26714993 0.5265151 0.24252999 0.56740975 0.26002127 0.2857487 0.21826774 0.5822922 0.5722791 0.22942036 0.22015566 0.45057487 0.49579626 0.5592866 -0.0297096 0.4078246 0.23959175 0.2996462 0.39902753 0.45467407 0.0625242 0.4401808 0.13378389 0.4503638 0.44504032 0.40733194 0.41273916 0.43676412 0.45089033 0.4697562 0.5199647 0.17749844 0.27081084 0.5271468 0.527489 0.35579884 0.3326391 0.5201895 0.51581776 0.5066331 0.4369976 0.75201285 0.677722 0.60917234 0.7794813 0.903958 0.94806063 0.9570943 0.7435312 0.74062395 0.57706165 0.41886556 0.69433105 0.92461634 0.7083709 0.7414353 0.3871747 0.17829013 0.23397523 0.4139276 0.3346562 0.39934385 0.8222542 0.6746644 0.14029287 -0.038581274 0.25650847 0.43356264 0.66116726 0.672709 0.5493335 0.44752198 0.46931976 0.12682763 0.14939396 0.3295585 0.39995816 -0.5480688 0.060126364 0.10559811 0.16350494 0.68441045 0.7365004 0.7423924 -0.42325395 0.7231477 -0.23259039 0.032895092 -0.14251299 0.55478275 0.55653894 0.5298009 0.5033811 0.14006975 0.49133617 0.44271064 -0.39073843 0.513847 -0.034931846 0.51116693 0.465819 0.4226551 0.36477137 0.14761387 0.39566672 0.15876348 0.46159458 0.46998003 0.20136823 0.5322953 0.5001097 0.19331309 0.5219912 0.12279478 0.20024924 0.25855973 0.31555608 0.44101602 0.10458122 0.38162494 0.17776188 0.37729368 0.23099858 0.30086643 0.3828798 0.438806 0.17080943 0.077299 0.28212845 0.45719182 0.41883868 0.33369324 0.2870888 0.46206406 0.4113912 0.4062218 0.72735316 0.8034992 0.8638737 0.88261354 0.4943542 0.4711303 0.6665964 0.8541237 0.6396563 0.47464797 0.19659534 0.18323863 0.3081672 0.3205382 0.3456829 0.73067296 0.6715237 0.6779279 0.19701056 0.119664416 0.0637144 0.26732334 0.5929924 0.6441119 0.6235794 0.56915796 0.5290109 0.54893106 0.5339185 0.4057258 0.4287523 0.34000728 0.35423234 0.1415254 0.02197469 -0.06487875 0.6542827 0.72713584 0.76636636 0.13538225 0.22525293 0.64344734 0.6005448 0.5411736 -0.13962805 0.65520203 0.63474154 0.51775205 -0.15883043 0.25885436 0.66448724 0.63247645 -0.10858674 -0.5970698 0.64460945 0.5938239 0.007265849 0.6308054 0.57090986 0.5923299 0.5894962 -0.044412278 0.53741074 0.47780102 0.42891562 0.0112147285 0.23493144 0.011222545 0.4413253 0.144288 0.085384004 0.42564568 0.4556383 0.43837953 0.13623425 0.12976155 0.34670654 0.42712146 0.26348007 0.15506205 0.23233545 0.28462577 0.30798078 0.35320544 0.007838037 0.23721424 0.33584562 0.31820953 0.038515367 0.04549061 0.33629492 0.2839278 0.26003784 0.16691676 0.7362325 0.77410805 0.3064409 0.43565387 0.6285659 0.71333677 0.7048546 0.76922774 0.7959325 0.14789186 0.15947305 0.22603232 0.24782375 0.67639273 0.6174096 0.7450676 0.7396573 0.72924703 0.10838951 0.14130557 0.14028665 0.0075847954 0.5845273 0.6617021 0.6607815 -0.23358533 0.52627665 0.5493914 0.4570139 0.4306846 0.35657948 0.24683666 0.26907 0.32357007 0.0045766234 0.19654655 0.20687795 0.704563 0.6919327 0.6089171 0.57428885 0.4274342 0.5420855 0.6461007 -0.11520622 -0.20595719 0.2315403 0.25055858 0.7392405 0.7036041 0.26554742 0.71583456 0.17503782 0.25399974 0.7354487 0.13750352 0.70021987 0.0020020716 0.017584752 0.6909297 0.66046655 -0.01189236 -0.007242539 0.57450026 0.5072362 -0.008178931 0.4722401 0.34559855 -0.21886429 -0.07204526 -0.11650619 -0.06426127 0.26145357 0.091954455 0.37686053 0.12662812 0.07885136 0.33010522 -0.014222156 0.35557163 0.30776012 -0.022780202 0.059442542 0.18913278 0.26702237 0.36716348 0.37794724 0.3285498 0.07497714 0.24979416 0.20540804 0.042589776 0.049427114 0.22581004 0.110603124 0.10498141 0.52146876 0.6291594 0.83198625 0.8365803 0.8386428 0.14358225 0.14834505 0.15491645 0.17608845 0.57884914 0.6190543 0.79031754 0.80549634 0.7270414 0.18377608 0.06987301 0.09060154 0.101115026 0.108322956 0.0778818 -0.063424066 0.0836367 0.06484699 0.54370844 0.54889345 0.7324821 0.09150809 0.48987246 0.4951915 0.6317602 0.39104652 0.39858693 0.3630712 0.18021911 0.30752665 0.22182153 0.7221154 0.7027527 0.6499476 0.5993386 0.074425235 0.2278693 0.7516756 0.7365875 0.24548006 0.7580291 0.5253342 0.24263868 0.24581856 0.75430894 0.13450806 0.20208551 0.7251725 0.71115017 0.6796694 0.0072043454 0.6415885 0.5775392 0.533284 0.42759275 -0.01710939 -0.0027695 0.49987108 0.46716815 -0.21191965 -0.053534698 -0.05989532 -0.10447985 0.081268325 -0.14301707 0.1920776 0.16435872 0.2571082 0.14278209 -0.51878333 -0.18009412 -0.13559186 0.26019347 -0.23618019 -0.01084428 0.15736754 0.20371196 0.36192542 -0.09754263 0.2657795 0.34496808 0.33910024 0.37494266 0.35182667 0.29410458 0.22816047 -0.05408332 0.21208908 0.1137536 -0.0042202175 0.21731621 0.19768938 0.45647812 0.45166546 0.8211504 0.8202293 0.77032655 0.6510979 0.5285634 0.76425385 0.7817737 0.3364424 0.09247622 0.06708278 -0.061110392 -0.007352667 0.026177565 0.48034745 0.7099558 0.22086221 0.121054485 0.033651832 0.27439928 0.40457344 0.57102513 0.35815054 0.48641884 0.360484 0.23183261 0.2740443 0.13135627 0.25058475 0.67709196 0.6434045 0.6161963 0.5747335 0.22475946 0.70446175 0.67501235 0.64342463 0.61480373 0.21362495 0.7185122 0.7039888 0.54449725 0.1746183 0.72479355 0.68582785 0.4586393 -0.11755848 0.7032989 0.68973815 0.6975684 0.6692785 0.6203393 0.49279597 0.4287641 0.29771203 0.6425303 0.5984725 0.5523629 0.5227349 0.18324636 0.25422713 0.26699692 0.06309886 0.24581553 -0.065093815 0.2673675 -0.11310181 -0.024969772 0.27829373 0.23277591 -0.3344341 0.24704427 -0.14813672 0.3111167 0.3544458 0.16818766 0.09046706 -0.03581725 0.08132441 -0.10000454 0.4368652 0.43836042 0.4278937 0.40564436 0.39789945 0.17048925 0.2793899 0.42691547 0.47005913 0.44203848 0.36716908 0.46292043 0.5013855 0.5199183 0.77515507 0.73142815 0.69139147 0.6434531 0.71071756 0.72629166 0.69242024 0.6328773 0.5506676 0.028297372 0.030972764 0.09267852 0.07780343 0.1879631 0.20822081 0.6544592 0.6141089 0.2458112 0.038240224 0.53111875 0.51508343 0.049231816 -0.30083814 0.23180911 0.38177335 -0.11786437 0.24954876 0.29577708 0.2509793 0.2832429 0.3782949 0.21641731 0.39531696 0.37425002 0.19394805 0.6836894 0.6654211 0.62620044 0.62065387 0.29695597 0.15041143 0.663311 0.64375293 0.61000216 0.5616571 0.6656123 0.6256976 0.575502 0.51234996 -0.09280543 0.67188454 0.6316569 0.53758657 0.4646104 0.41698027 -0.26324612 0.6694563 0.47669354 0.3791614 0.31501478 -0.011457985 0.17722726 0.4582123 0.18044299 0.42893913 0.62661016 0.48699862 0.4424536 0.6549777 0.37211293 0.41843593 0.57413244 0.6451671 0.68608266 0.2643026 0.39898336 0.5180792 -0.12829795 -0.15159178 0.28612596 0.020508163 0.2865916 0.06925143 0.2914954 0.27283043 0.29594827 0.2693833 0.21319361 -0.02103895 0.09022096 -0.07700366 0.28350425 0.39208186 0.35375303 0.17781495 0.51888645 0.3942114 0.42116195 0.4385711 0.40490404 0.37785065 0.48700672 0.5565891 0.5526813 0.53248715 0.5322877 0.25929016 0.26595405 0.3464818 0.3555615 0.64734554 0.64297974 0.59011793 0.09663668 0.20152295 0.2249466 0.28682667 0.59198105 0.5377002 0.51528007 0.31839135 0.19458129 -0.014763229 -0.02731713 0.18935785 0.45748103 -0.041033182 -0.14488472 -0.112152115 0.18084064 0.17821735 0.32285404 0.23810795 0.3427344 0.36437276 0.32870618 0.15674722 0.16995904 -0.016105663 0.07364689 0.06619978 -0.19564752 -0.10643914 0.36306056 0.33718854 0.46818957 0.60807407 0.4934576 0.48772383 0.60195273 0.7453296 0.5101115 0.5093122 0.69092774 0.75372416 0.49983686 0.7204989 0.7479292 0.4702863 0.66202533 0.70009845 0.30407616 0.48976284 0.5469378 0.65250194 0.2737527 -0.1648924 0.3282171 -0.073372096 0.33750096 0.077614106 0.36886927 0.3555547 0.19122459 0.3549229 0.31005052 0.17717329 0.12214979 -0.027703837 0.17478225 0.3658978 0.40993986 0.5472636 0.541741 0.30880147 0.37549275 0.2766276 0.49941888 0.5787672 0.5742369 0.25865895 0.34023544 0.3561744 0.3644659 0.3652171 0.21123275 0.25061032 0.3154675 0.3606023 0.2861013 0.027360013 0.20799263 0.4125446 0.07994523 0.046795364 0.02698504 0.17059541 0.27472058 0.03413582 -0.045226257 0.21911332 0.2295532 0.07964426 0.16541442 0.32913023 0.27473232 0.105187766 0.26824236 0.20972668 0.06992097 -0.0718294 0.48681998 0.7280735 0.8017918 0.51636016 0.5334139 0.49972406 0.7807572 0.79019374 0.50404465 0.4992572 -0.21732655 0.77118313 0.7873728 0.48369208 0.47836912 0.7653096 0.78008133 0.4210134 -0.007845208 -0.22887754 0.66213405 0.7124009 0.74850667 -0.008703696 0.45862785 0.6404679 0.3332422 0.37770322 0.3797652 0.39356017 0.45169914 0.44843572 0.4082675 0.034384288 0.14649 0.40949428 0.38701665 0.35836533 0.37502334 0.16866903 0.4046558 0.036563203 0.05484786 0.4401737 0.4468513 0.53337896 0.518945 0.52436054 0.034500897 0.19014497 0.009968778 0.51788944 0.5282045 0.52763826 0.51330066 0.55939496 0.28913945 0.46578234 0.57115257 0.5816759 0.49434954 0.5856903 0.376243 0.3739667 0.13087282 0.23228131 0.29428682 0.30764332 0.34671813 0.3665918 0.36107165 0.33149242 0.27939248 0.14195889 0.13343324 0.2621065 0.1708456 0.18159804 0.23006871 0.24165842 0.15894803 -0.043013133 -0.064810015 0.35516617 0.023029407 0.056601495 0.059738114 0.24764799 0.231235 0.0493288 0.2560016 0.19629386 0.08058831 0.8171658 0.8322668 0.23364091 0.81968105 0.80440366 0.49628562 0.4238478 0.23208438 0.78694147 0.7990558 0.46291357 0.16073833 0.77019876 0.78492236 0.0037372038 0.121823505 0.21556622 0.3951275 0.5861154 0.71014893 0.7443237 0.25208035 -0.054750446 0.07602385 0.26887354 0.33573854 0.467978 0.60024494 0.40044242 0.3644114 0.4204079 -0.30429155 0.5038164 0.54507935 0.5419603 0.51691914 -0.040162124 0.29854816 0.5760009 0.5359282 0.4325929 0.41865134 0.029834813 -0.1402459 0.4106587 -0.23400876 -0.15733315 0.52516633 -0.07244076 0.5883081 0.54838014 0.49718815 0.5984322 0.6018699 0.28639382 0.31335565 0.32791287 0.33096504 0.31822294 0.3373857 0.43799123 0.40056708 0.32372904 0.25648546 0.33133724 0.3345705 0.30868247 0.4076838 0.4714843 0.53881454 0.50909007 0.3603333 0.2882196 0.08544239 0.022086708 -0.07517751 0.3161063 0.3480668 0.44650474 0.30670205 0.33073133 0.23806174 0.20838392 0.39412177 0.32223177 0.30109197 0.13179633 0.10790615 0.84247327 0.2935204 0.88645715 0.8410444 0.3600263 0.19783501 0.23136055 0.82086885 0.22167379 0.2858557 0.47723222 0.77470636 0.7922199 -0.053310856 0.24889061 0.3617086 0.51868516 0.16210715 0.50034344 0.22568947 0.5807189 0.634619 0.5870576 0.48945314 0.058945104 0.5839515 0.6563457 0.7094703 0.6296301 -0.01443629 0.12486127 0.62126637 0.68907607 0.6355823 0.64199275 0.29436868 0.5834119 0.52657104 0.3845691 0.052085515 0.4731103 -0.110872574 -0.15239058 -0.111830615 0.55350566 0.5258745 0.15955402 0.57708 0.57284343 0.49344167 0.48112243 0.3150337 0.34884444 0.32828945 0.47752392 0.5129361 0.49897474 0.32860085 0.3401762 0.3515268 0.3495313 0.2672877 0.23942158 0.5659456 0.57045174 0.5814325 0.4156992 0.34573635 0.3393842 0.4432618 0.2647827 0.47040176 0.5322741 0.40388334 0.42756242 0.09977796 0.21137355 -0.15599437 0.4880732 0.31419873 0.32760292 -0.20241883 0.455099 -0.07231284 0.458005 -0.05714403 0.33509362 0.43867105 0.099590704 0.48369277 0.04698862 0.03772387 -0.054492913 0.41329926 0.48886248 0.42986152 0.23323715 0.24286567 0.36027592 0.23317581 0.17696822 0.33463356 -0.051817756 0.21704328 0.21165426 0.2993045 0.52350485 0.41521513 -0.38587373 -0.421075 -0.19230618 0.46074682 0.26997226 0.41005486 0.6506425 0.8357927 0.37229866 0.17736529 -0.45889664 0.12913339 0.1560404 0.15373412 0.3890163 0.47915655 0.08445832 0.157798 0.07758307 0.012663245 0.20103033 0.015077338 0.18607166 0.14076483 0.11577354 0.47351617 0.15590975 0.38252324 0.21986195 0.31209013 0.15866345 0.37490594 -0.09774813 0.37044877 0.62898266 0.6357615 0.3399446 0.096484 -0.09243431 0.47422904 0.592839 0.5991711 0.30194312 0.17760374 0.03846698 0.57719576 0.54386324 0.29101184 0.5118333 0.53927153 0.52277833 0.49338877 0.34828344 0.30337077 0.3336722 0.35601473 0.5406481 0.57103133 0.58923936 0.58134055 0.5043432 0.53669965 0.4985609 0.41500407 0.33304456 0.28920275 0.3380858 0.32607734 0.3350041 0.48001856 0.5794343 0.43017995 0.45105165 0.4251349 0.3244059 0.2516576 0.26269272 0.32085156 0.26855525 0.32594717 0.5726484 0.5453486 0.39443102 0.07905106 0.15929076 0.1855827 0.53301036 0.05779888 -0.06899746 -0.0072590746 0.04336714 0.0056958944 0.03117434 -0.17079972 -0.052960895 0.5342019 0.41243768 0.38233075 0.092635065 0.089066535 0.519373 0.54241776 0.16709371 0.1535613 -0.01571256 0.5389236 0.5559075 0.23764749 0.26683724 0.5934868 0.52481955 0.5227455 0.3143019 0.28190655 0.36387926 0.6160606 0.48709184 0.16746435 0.17123908 0.29425222 -0.18609323 0.07249496 0.09854881 0.09309372 0.44466293 0.44524878 -0.21836519 -0.35166663 0.43811244 0.3724193 0.41425365 0.16585234 0.2690801 0.3608393 0.049392328 0.1584703 0.109651744 -0.094808385 -0.0584116 -0.13499525 0.16584152 0.19980481 0.19224016 0.2002843 0.18052661 0.38526613 0.35182592 0.34162605 0.4046597 0.49566874 0.24281745 0.3330265 0.20919563 0.22650725 0.22265284 0.23676