# vtk DataFile Version 2.0
Really cool data
ASCII
DATASET POLYDATA
POINTS 3494 float
-14.773171 34.910408 20.110003
-14.7939625 34.808777 20.598045
-14.757696 34.855194 21.230011
-14.683118 35.404694 19.893991
-14.865254 35.51795 20.593817
-14.767148 35.442047 21.506243
-14.607975 35.418056 21.900587
-14.720757 35.995255 20.638609
-14.696187 35.985435 21.306437
-13.734158 33.96322 19.113703
-14.0616665 34.109116 19.750132
-14.24469 34.130875 20.48545
-14.170735 34.099754 21.098717
-14.048117 34.331528 21.761639
-13.755963 34.495453 18.837431
-14.185413 34.43294 19.567472
-14.587285 34.42694 20.621073
-14.584072 34.668182 21.413261
-14.186912 34.91102 22.185368
-13.815769 35.42864 19.145893
-14.443127 35.480618 19.670067
-14.293799 35.52691 22.212973
-13.924504 35.511696 22.610432
-14.2283125 36.124268 19.97319
-14.375856 36.33962 20.64057
-14.379968 36.323586 21.42969
-14.149376 36.225277 22.04675
-13.964842 36.586006 20.65172
-13.923614 36.663757 21.314934
-13.007444 33.304817 19.730001
-12.88815 33.137436 20.11951
-13.061784 33.997692 18.22943
-13.268463 33.71726 18.695944
-13.447071 33.54945 19.600187
-13.437346 33.520645 20.330532
-13.417671 33.659855 21.047184
-13.071596 34.399826 18.176756
-13.508808 34.47507 18.511133
-13.510911 34.71285 22.50269
-13.089985 34.957783 22.8144
-12.986483 34.99614 18.243748
-13.257654 35.292976 18.60824
-13.641109 35.633842 22.691221
-13.177648 35.82844 19.027187
-13.409545 36.221134 19.634682
-13.522981 36.361946 22.372831
-13.404899 36.07045 22.659224
-13.504814 36.721867 20.755833
-13.642632 36.72686 21.519726
-13.141128 36.689163 21.942225
-12.299722 33.150494 18.86041
-12.611505 33.106506 19.32598
-12.233702 32.99727 20.43609
-12.405797 33.285717 21.334553
-12.55271 33.812466 18.153664
-12.080685 33.4443 18.385937
-12.04364 33.90549 22.55313
-12.536846 34.470745 18.04413
-12.147673 34.559055 22.869684
-12.4549265 35.059837 18.163494
-12.510242 35.430614 18.456211
-12.319579 35.35421 23.029242
-12.678918 35.90715 19.003635
-12.250178 36.342552 19.690264
-12.465485 36.63952 20.154295
-12.857146 36.72714 20.539993
-11.668248 33.201195 18.704561
-11.739441 32.90658 19.471786
-11.585724 33.87887 18.172827
-11.253367 33.49358 18.48155
-11.252237 34.110664 23.004911
-11.819776 34.428543 18.028257
-11.641921 34.480675 23.076742
-11.629572 34.837505 18.068272
-11.661266 35.960007 19.10334
-11.850314 36.125816 19.362097
-11.169057 36.516243 22.509352
-11.813428 36.100773 22.942987
-11.711738 36.644775 20.278873
-10.5853815 33.030704 19.565157
-10.396978 32.812195 21.678574
-11.054784 33.739773 18.380507
-10.452075 33.67719 18.886005
-10.324539 33.424644 19.308983
-10.93601 34.401466 18.295174
-10.549594 34.47978 18.486076
-10.18256 34.45856 23.904913
-10.903082 34.835747 18.337942
-10.677576 35.396294 18.867144
-9.876263 35.019547 23.928072
-10.7213955 35.762436 19.159018
-10.666889 35.786266 19.37693
-10.616008 36.48642 20.351698
-10.8634205 36.335255 22.764112
-10.729475 36.653294 21.456059
-9.579884 42.996407 32.704506
-9.610467 42.95473 33.38483
-9.69055 43.50451 32.87896
-9.843871 43.751648 33.651836
-9.642001 43.577328 34.277412
-9.675499 44.21995 33.0054
-9.847641 44.422237 33.64675
-9.770629 44.513023 34.31882
-9.778241 44.81038 33.77211
-9.688573 44.891846 34.226505
-9.7642765 33.003998 19.904173
-9.350001 32.7581 20.416306
-9.675528 32.608086 21.603739
-9.435664 33.00857 23.325832
-9.256316 33.603294 19.75438
-8.999447 33.447075 24.049694
-9.77601 34.28013 19.117123
-8.967641 34.50847 24.534058
-9.60524 35.415726 19.33323
-9.636634 35.620594 19.445293
-9.744995 36.01413 19.78315
-9.927484 36.387985 20.298855
-9.848682 36.463997 23.034554
-9.456522 36.66634 21.301752
-9.41022 36.769436 22.776451
-8.768906 37.742683 25.590446
-8.733467 38.033287 27.211714
-8.533183 38.134655 28.204222
-8.691179 38.07139 25.208138
-8.819857 38.45968 25.722
-8.68264 38.604767 27.588533
-8.611807 38.80174 28.061771
-8.6208 39.00715 26.550362
-9.201738 42.212685 32.63787
-9.141168 42.169 33.203815
-8.918809 42.296204 33.79615
-9.280004 42.940006 32.12218
-9.348911 42.577072 32.51082
-9.296721 42.515053 33.52555
-9.107854 42.92238 34.36649
-9.254388 43.47353 32.113556
-9.471542 43.598232 32.428265
-9.490206 43.579727 34.516735
-9.1440325 43.716972 34.856735
-8.918135 44.277588 32.089687
-9.321362 44.37983 32.601982
-9.6218815 44.106148 34.622383
-9.231856 44.468452 34.901386
-9.084558 45.042892 32.92296
-9.369089 45.199898 33.71774
-9.338228 45.161846 34.318394
-9.04248 44.96022 34.84504
-7.6445565 24.902512 17.836086
-7.719915 25.415718 17.61621
-7.946931 25.449379 18.582047
-8.120945 26.023653 19.723373
-7.9962444 26.087337 20.191572
-7.8718643 26.170912 17.950218
-8.134847 26.809896 18.751457
-8.305466 26.668364 19.556301
-8.134397 26.583399 20.279007
-7.894376 26.777483 20.780119
-8.053938 27.209265 18.708353
-8.303428 27.326649 19.51711
-8.096014 27.308462 20.392849
-7.9029427 27.239346 20.75409
-7.8920894 27.917294 18.955011
-7.8287945 27.925636 20.426208
-8.204619 32.433056 22.34702
-7.8342 31.6114 24.434633
-7.6276727 31.625774 25.29158
-8.979742 32.550003 20.886902
-8.712648 32.5659 22.44036
-7.930044 32.36256 24.47919
-8.696142 33.489758 19.948114
-9.091843 34.388733 19.329298
-8.727128 34.37505 19.542946
-8.579192 35.42656 19.876562
-8.150599 35.363 24.856586
-7.708426 35.481213 26.113882
-8.429755 36.18495 20.65907
-8.374185 36.968433 26.315348
-7.8921757 36.9623 27.379295
-8.081293 37.27034 28.272682
-7.7998204 36.673134 29.552603
-7.716966 36.786877 30.23595
-8.261263 37.562786 27.772493
-8.095376 37.416405 29.440142
-7.861158 37.67449 30.35627
-7.8525143 38.201874 30.252295
-7.858412 38.914856 24.858084
-8.438483 39.339783 26.535711
-8.05253 40.02836 27.46997
-8.019837 40.002808 28.360598
-8.4317665 41.866814 33.41642
-8.012382 42.075233 33.883488
-8.60435 42.741604 34.591743
-8.390937 43.062588 34.922764
-7.73189 43.299335 31.038498
-8.575022 43.271923 31.65113
-8.348669 43.509018 35.141014
-8.493671 44.687798 32.0116
-8.549521 44.348095 35.18353
-7.9654922 45.080585 31.999517
-8.338856 45.493603 33.024513
-8.590065 45.398544 34.576954
-8.331454 45.135654 34.952026
-8.571781 45.588158 33.71518
-8.4728775 45.60961 34.275097
-7.190254 24.325508 17.771015
-7.0445437 24.895977 16.974495
-7.3193073 24.625114 17.508081
-7.4480667 24.565784 18.1328
-7.231447 24.696373 19.157608
-7.090044 25.587229 16.79002
-7.558166 25.833675 20.458202
-7.0784254 25.83526 20.890646
-7.354083 26.27204 17.163418
-7.288151 26.662416 21.164793
-7.6086254 27.332916 18.101217
-7.25393 27.553698 21.274925
-7.094916 28.257427 18.25302
-7.548829 28.4596 19.994684
-7.420553 28.657518 18.928064
-6.9274426 30.195848 24.424015
-6.8439727 30.05973 25.027937
-7.2185755 30.727108 23.651018
-7.2722716 30.542763 24.55039
-7.240477 30.67538 25.286104
-6.9071465 30.789175 25.905085
-7.017907 32.044823 21.265541
-6.933861 31.823425 21.638327
-7.403008 31.328653 25.677624
-7.1187215 31.746761 26.13733
-7.092248 32.934536 20.474947
-7.3494797 32.550526 26.022623
-7.14525 33.27223 26.085537
-7.6814075 35.04674 20.11449
-7.1577735 35.63055 26.669197
-7.257152 36.150333 29.695448
-7.1405873 36.239143 30.390574
-7.7174582 36.079792 20.826084
-7.3640175 36.50228 21.426409
-7.434699 36.498837 30.523912
-7.201955 36.810932 31.084309
-6.861326 37.1714 32.145985
-7.1580553 36.72405 21.759155
-7.230284 37.174133 22.4664
-7.242049 37.726723 31.641188
-6.8622 37.457676 32.51664
-6.660622 37.510563 32.844925
-6.910799 38.37874 23.919924
-6.819048 38.074574 32.756775
-7.2127147 39.343998 24.916948
-6.8925943 39.163147 32.35726
-7.1132803 39.731552 25.391304
-7.594091 39.794483 26.412733
-7.3978896 40.527077 28.77883
-7.667557 42.1116 31.538214
-7.62467 41.76078 33.128227
-7.3275695 42.057503 34.320942
-7.4553037 42.80195 30.361992
-7.3312936 42.764427 35.0661
-6.6655326 43.432358 29.442625
-7.4172916 43.437477 30.572384
-7.7658157 43.548702 35.339928
-7.5949073 44.115696 31.043589
-7.517454 44.54217 35.378548
-7.1205716 44.85077 31.014328
-6.8142805 45.442963 31.331087
-7.705891 45.47966 34.6066
-7.6199207 45.247307 35.012028
-7.424936 45.776836 33.05201
-7.755889 45.69532 33.68935
-7.2648325 45.75524 34.333
-6.639881 24.298412 17.078028
-6.3546715 24.031374 17.494692
-6.0768414 23.870771 18.291693
-6.3051734 24.150906 19.244263
-6.006641 25.095274 16.388668
-6.419678 24.730122 16.71071
-6.5938673 24.937113 20.48304
-6.101349 24.905003 20.71935
-6.378685 25.638287 16.371107
-6.338095 25.798199 21.223682
-6.200393 26.368904 16.37334
-6.4351106 26.550585 16.556458
-6.487211 26.82603 21.513323
-6.4839296 26.941233 16.7784
-6.4982166 27.453945 17.352102
-6.0798497 27.147493 21.671473
-5.8992662 28.565039 17.846262
-6.528139 28.780642 18.459774
-6.3626056 29.729826 20.170275
-6.541533 29.969997 23.618874
-6.215167 29.670013 25.361038
-5.921914 29.792192 26.34606
-6.4121456 30.71182 26.505713
-5.982931 30.57306 26.911816
-6.3870053 31.745382 26.772043
-7.0631733 33.680912 20.296795
-6.543016 34.27821 20.372002
-6.4369955 34.53151 26.721113
-6.5040636 34.939793 20.562368
-6.7574368 36.195442 27.616013
-6.685162 35.95426 29.852072
-6.3932 36.05117 30.330486
-6.2887816 36.28528 31.211279
-6.3661857 36.857204 32.337997
-6.2356486 37.0991 32.89884
-6.2569942 37.572987 33.220062
-6.5113287 37.970974 23.25871
-6.42586 38.38766 23.430355
-6.2367816 38.51842 33.352257
-5.885535 38.14417 33.588802
-6.1319575 38.897194 23.796774
-6.6501875 39.90314 25.757437
-6.375629 40.464268 32.477985
-5.705015 41.431973 26.423815
-6.1870427 42.221443 27.476038
-6.326299 42.937 35.215153
-6.5061746 43.467293 28.350224
-6.584093 43.951828 35.363255
-5.8213553 44.621464 26.109854
-6.036404 44.97519 26.4092
-6.2839103 44.461773 28.227173
-6.5176964 44.439217 35.422718
-6.6211605 44.130047 35.519268
-5.7653947 45.48271 25.985348
-5.9110627 45.625477 26.713814
-5.8966036 45.605793 27.484533
-6.774639 45.52653 31.452736
-6.6059847 45.23246 35.101513
-5.686168 46.124058 26.16865
-5.6100235 46.374756 27.070015
-6.3788757 45.70756 31.626167
-6.2770424 45.97041 32.448406
[...]
POINT_DATA 3494
SCALARS features_00 float 1
LOOKUP_TABLE default
0.8731943 0.8750477 0.890672 0.9125854 0.9459152 0.93797874 0.91833633 0.9480191 0.9502473 0.8235532 0.7782311 0.7604456 0.7577927 0.79024446 0.8605245 0.8212601 0.8168406 0.8644524 0.837747 0.84429455 0.8994868 0.8937479 0.8325697 0.88390446 0.9123549 0.92794955 0.91293776 0.8608102 0.8901231 0.7310329 0.6808189 0.88419425 0.86361104 0.74986494 0.68009126 0.65078515 0.8730378 0.86698973 0.7063874 0.65828604 0.8340189 0.81368315 0.8047166 0.74310327 0.7467435 0.84563494 0.8043803 0.8100098 0.8704449 0.80497754 0.83211756 0.7876717 0.6196377 0.5849296 0.88003826 0.8435167 0.46472904 0.8595002 0.5030542 0.8084215 0.7572031 0.5986083 0.68201613 0.564335 0.5822662 0.6810622 0.7663586 0.7183504 0.7893683 0.7184793 0.3513189 0.8137486 0.41783583 0.77369463 0.55903876 0.5433707 0.5448817 0.69407964 0.4584603 0.5293596 0.3993696 0.6985123 0.5857038 0.5352006 0.6906419 0.6305634 0.30287966 0.6692813 0.5554853 0.31626737 0.4905828 0.46703702 0.4087541 0.49774194 0.46848476 0.7603368 0.8098179 0.7822212 0.87489736 0.87658787 0.81492853 0.91253495 0.94641566 0.9291115 0.9422685 0.44904065 0.4315255 0.33719918 0.2959913 0.4373709 0.19366245 0.5326731 0.1142116 0.46921563 0.4461467 0.40054768 0.38112843 0.38349745 0.3694197 0.36882794 0.5324432 0.43280956 0.35479847 0.5910344 0.572974 0.46029586 0.44726676 0.5430035 0.72909975 0.7569776 0.7422807 0.6602713 0.7280912 0.7850758 0.7809983 0.63887745 0.7063648 0.86790633 0.8578371 0.5910634 0.7275579 0.9201026 0.91201735 0.7944547 0.8922935 0.9086897 0.8909793 0.70992446 0.70511746 0.7062878 0.68187064 0.6461868 0.68733823 0.68820953 0.69686663 0.656312 0.62620854 0.66794384 0.69486284 0.66882646 0.6478956 0.64605385 0.6883775 0.1718854 0.37076706 0.421616 0.35731274 0.24834971 0.29535702 0.38159207 0.4777967 0.43500233 0.41556433 0.03825458 0.0297077 0.33375156 0.33274823 0.28014922 0.31496507 0.42695338 0.45934144 0.33331424 0.38910687 0.42140883 0.39135668 0.41933793 0.54951596 0.49473247 0.46660072 0.6799409 0.650936 0.7239647 0.7345589 0.3547593 0.5064522 0.77790964 0.54232997 0.85297394 0.49806172 0.6809383 0.80966765 0.79662955 0.7632729 0.7701818 0.68326133 0.67350733 0.69473433 0.6912635 0.66972303 0.66867435 0.60167015 0.551981 0.66239476 0.57072973 0.5882987 0.5909208 0.4572612 0.65926516 0.51837796 0.42629027 0.4862554 0.338824 0.4249435 0.47605586 0.53819716 0.1996169 0.1746184 0.46493578 0.47670132 0.19067188 0.40158176 0.31995475 0.34779575 0.09278719 0.44451255 0.49043626 0.29247403 0.20728284 0.48715398 0.5001224 0.54382634 0.15676934 0.063345276 0.45598823 0.5609511 0.5949093 0.057142116 0.5521616 0.25754586 0.4599493 0.2858298 0.46469313 0.2791528 0.4570796 0.5815878 0.6052898 0.16876777 0.63844514 0.00016407669 0.24971464 0.7273681 0.34398973 0.7481619 0.33666712 0.35884792 0.70887524 0.7193259 0.5551163 0.65434134 0.6639869 0.6681174 0.6575961 0.5964098 0.50485075 0.6109273 0.6567164 0.50284886 0.45735353 0.60319364 0.481416 0.5161779 0.5253847 0.48114666 0.4737716 0.41538495 0.39619416 0.26055324 0.3097223 0.18651958 0.3709788 0.5463731 0.64699256 0.61630464 0.6692019 0.56458664 0.24180946 0.20938236 0.13359268 0.24118821 0.17372708 0.4309433 0.46298832 0.53340507 0.591257 0.6222629 0.6206809 -0.1259628 -0.08402129 0.57937586 0.59706473 0.013022397 0.22870459 0.3581056 -0.096679956 0.09832034 0.5539968 0.07204574 0.6317382 0.40940922 0.4202665 0.26662478 0.652915 0.6489207 0.43406618 0.40463766 0.36594284 0.36717698 0.66754234 0.4187023 0.3629508 0.31717092 0.35641092 0.54358023 0.6554939 0.59952426 0.59870416 0.4199478 0.39579934 0.38218912 0.61909777 0.418033 0.39576697 0.5326785 0.38202465 0.45938653 0.34377432 0.38298175 0.22467774 0.29726732 0.46229506 0.5756889 0.6407693 0.14372371 0.6627343 0.68460834 0.15536717 0.1608019 0.6952257 0.022478286 0.0117510175 0.6799786 -0.0778657 0.6103845 -0.11538641 0.33282167 0.008282006 0.15738907 0.039750367 0.16259116 0.36200207 0.394575 0.46038195 0.16952114 0.63215184 0.6363621 0.62826777 0.61387444 0.04079394 0.5968118 0.5297772 0.042857207 -0.06733996 0.2856107 0.48037276 0.46836683 0.34316558 0.21111785 0.41179585 0.39127594 0.5924156 0.43159977 0.43922025 0.6366463 0.44673592 0.4286524 0.3809299 0.3617418 0.2864809 0.04849778 0.44803107 0.46276295 0.43245724 0.28156623 0.24150725 0.34184107 0.32954022 0.3426792 0.32009465 0.3016846 0.2763188 0.21138825 0.23930171 0.06947494 0.12192021 0.32692075 0.55444723 0.58295965 0.63442636 0.0949835 0.6376958 0.6911197 0.7078287 0.7092222 0.0426475 -0.083905585 0.5027838 -0.039130293 0.27413747 0.028465383 0.103980675 0.029384464 0.30236387 0.3377114 0.41130528 0.57495934 0.61513615 0.6046689 0.59487414 0.40952906 0.38909048 0.118775174 0.09683518 0.56638205 0.4203971 0.42578483 0.2698138 0.08454682 0.52864474 0.42724544 0.41875264 0.29232392 0.41277552 0.35350692 0.3984242 0.4053418 0.41065574 0.50148994 0.45107803 0.45340627 0.5225977 0.47879288 0.25356764 0.32424396 0.32809633 0.61762 0.59354466 0.5836483 0.4345637 0.66061884 0.6565288 0.63712823 0.54626954 0.5213758 0.54585993 0.46458584 0.34756514 0.2540384 0.20666507 0.15223439 0.5832027 -0.011490941 0.63506705 0.65073633 0.6972712 0.015770832 0.60423386 0.284858 0.4369333 0.4746042 -0.09311677 0.19031706 0.33120847 0.23822552 0.1257701 0.100628756 0.13288763 0.07170161 0.24359933 0.33219576 -0.053951748 -0.02543901 0.06058826 0.128964 0.2847616 0.32526523 0.57209307 0.14500389 0.52378255 0.58609945 0.30360854 0.38160315 0.54488486 0.29770303 0.40934476 0.48276973 0.4076053 0.41673398 0.355939 0.1695598 0.105448864 0.3689933 0.3784318 0.2608985 0.08444648 0.23246606 0.18094394 0.4924198 0.32004088 0.46006018 0.42866337 0.631557 0.6317716 0.3816005 0.44188273 0.66061115 0.6702932 0.67172545 0.62863046 0.57996124 0.6922046 0.67818433 0.64270043 0.6017308 0.5847806 0.5440889 0.6032085 0.6020425 0.56634796 0.52472353 0.45993665 0.4539931 0.37555587 0.3842939 0.2519323 0.089254886 0.15337156 0.12157479 -0.049665596 0.08314504 0.52887654 0.55529344 0.046259444 0.5502116 0.5959994 0.578642 -0.19298503 0.53984237 0.06468564 0.45499778 0.12731926 0.1446912 0.027888231 0.14394136 0.15587014 0.008295711 -0.07525027 0.41981775 0.40075642 0.3685326 0.118020356 0.14097737 0.14733303 0.031015314 0.021296598 0.10551711 0.018203974 0.37397766 0.3804133 0.3937381 0.08891915 -0.07733985 0.012792297 -0.0057412013 0.18240295 0.03238567 0.11411402 0.13300896 0.17990047 0.20651501 0.025432527 0.019421265 0.2826275 0.30989933 0.27054495 0.11282815 -0.020711977 -0.16469021 0.3002438 0.43319485 0.41490605 0.34702253 0.3436216 0.3202359 0.14720663 -0.06706743 -0.20566794 0.519135 0.5335329 0.55015063 0.4835955 0.35336882 0.36018497 0.3335958 0.2633999 0.2805231 0.6253457 0.6491773 0.6211739 0.5647885 0.3393203 0.2429688 0.35500473 0.62033045 0.7353916 0.7452136 0.6896777 0.5994601 0.4174165 0.6956965 0.741518 0.7582639 0.73545736 0.5947156 0.48701608 0.46434176 0.70174766 0.72722393 0.7381646 0.732749 0.6328968 0.46694797 0.48284066 0.4835862 0.67524326 0.6937754 0.5543649 0.5423783 0.69400686 0.6805378 0.64447796 0.57238847 0.56314135 0.528958 0.544472 0.58537793 0.5015873 0.450051 0.43868577 0.37096074 0.32317817 0.25692675 0.14758416 0.07240383 0.19301748 0.13214874 0.08165984 0.21863621 0.22521454 0.43578953 0.11421555 0.028059687 0.40966812 0.47535524 0.47469777 0.05197299 -0.02364454 0.10425835 0.29271394 0.33653277 0.36251947 0.12223363 0.3741775 0.39326394 0.37401646 0.081655055 0.38000977 0.4069088 0.30867726 0.06486541 0.03357608 0.2777221 0.3532636 0.32292014 0.028691147 -0.15171298 0.017754206 0.60293424 0.62282187 0.6360636 0.61066115 0.2442494 0.17407112 0.22025982 0.27120486 0.27671573 0.28988332 0.2350312 0.083775304 0.55867463 0.59323496 0.5901958 0.53085536 0.2501303 0.22987828 0.1634438 0.14001143 0.16280812 0.13269833 0.14247325 0.006053183 0.15868132 0.5106822 0.5174444 0.49939108 0.43990463 0.2534709 0.1357122 0.14899647 0.026096284 0.055877335 0.12894462 0.43583643 0.29946977 0.19401565 0.15522397 0.2253665 0.20090735 0.119768254 0.0059530586 0.039887547 0.048815012 0.056454808 0.07498505 0.2923417 0.15054783 0.15595278 0.17991751 0.2110876 0.19699323 0.16381837 0.080210105 0.09613214 0.047535732 0.07840304 0.33918035 0.130336 0.16225824 0.16259828 0.30862755 0.3253078 0.28930953 0.23954661 0.19232494 0.34906963 0.32729048 0.32904688 0.29313338 0.34100154 0.28587306 0.17353617 0.24460572 0.39894682 0.3353116 0.433612 0.37624848 0.29282045 0.2700584 0.33727652 0.33193505 0.32008523 0.24109575 0.26241362 0.23718594 0.4154356 0.33748588 0.4405685 0.4793741 0.24065103 0.2552449 0.31231326 0.36173892 0.3829796 0.40892068 0.25623733 0.25208038 -0.14943446 0.38993382 0.4534967 0.47862303 0.55549544 0.279207 0.3101678 0.3766956 0.424885 0.45676455 0.41064036 0.633057 0.67955315 0.6172372 0.30291295 0.3211813 0.40282923 0.461188 0.50468105 0.5903065 0.469988 0.43583816 0.655082 0.687278 0.70083016 0.6903106 0.38195026 0.42641726 0.47245955 0.64605 0.647375 0.27555218 0.4122525 0.509296 0.49434507 0.6313959 0.68211997 0.34660378 0.526554 0.5129222 0.5730945 0.5986745 0.49848792 0.4673808 0.42992827 0.36785883 0.36574182 0.33861968 0.25354958 0.20800696 0.05999065 0.048922263 0.0014936142 0.32780695 -0.08414985 0.20167947 0.17366412 0.61471844 0.5866811 0.064359926 0.63099277 0.63793194 0.60748976 0.519269 0.19631678 0.6355386 0.64686555 0.6008407 0.50176656 0.18549755 0.20983034 0.31288198 0.28045923 -0.008343108 0.43580976 0.25269994 0.05223865 0.14499737 0.25569585 -0.0027957559 0.61694795 0.61302173 0.5991201 0.6284938 0.19774035 0.22537395 -0.22516547 0.61006606 0.60811126 0.61883307 0.559034 0.22374633 0.24482717 -0.26917326 -0.2479989 0.14530466 0.16347045 0.17953676 0.5653583 0.579962 0.33762717 0.14443506 0.24569394 -0.122130215 -0.044628985 -0.11426703 0.52843696 0.4906977 0.2763271 -0.029735103 0.24224027 -0.050571844 -0.11255838 -0.04656086 0.44056734 0.34818348 0.1284643 0.16226646 0.27491546 0.104211636 0.042272933 -9.782612e-05 0.34044546 0.35948026 0.18997467 0.124047756 0.061780244 0.23711719 0.13228476 0.1097977 0.11138891 0.071481444 -0.043717116 0.38915336 0.20933314 -0.028237548 0.10243815 -0.08681213 0.07909143 0.41431713 0.076806486 0.16765454 0.2078566 0.42501393 0.18124503 -0.008499056 0.2086702 0.45309252 0.10991438 0.22450954 0.24069491 0.23865373 0.2234235 -0.15334277 0.3707739 0.41104448 0.2827965 0.39571014 0.24106543 0.48869592 0.1934967 0.22369722 0.3731981 0.37359273 0.56455153 0.25898093 0.33039492 0.5137463 0.5151236 0.5897615 0.44776198 0.54142153 0.6026237 0.6185589 0.62498546 0.2692628 0.3439681 0.39773917 0.47481054 0.52761155 0.56584466 0.06687666 -0.10809675 -0.23340796 0.36691582 0.48172915 0.4902635 0.58279294 0.38685393 0.49335316 0.54887736 0.584684 0.5630592 0.47166103 0.51559246 0.37565652 0.38738075 0.24217519 0.16889441 0.27499372 0.12001013 0.77147806 0.8068663 0.83817375 0.09467798 0.0073937103 0.7583604 0.8097045 0.83026636 0.8239397 0.6510347 0.7273787 0.7123227 0.7900888 0.19098288 0.6336648 0.6864103 0.1638827 0.3984816 0.557138 0.5060459 0.48035324 0.11086585 0.0815751 0.4136967 0.5953869 0.60230386 0.57198 0.4949979 0.43235147 0.2080082 0.18179089 -0.14001913 -0.013164682 0.5854605 0.6123928 0.30624196 0.16536072 0.1461825 -0.017967101 0.58451784 0.061735168 0.12858257 0.08062108 0.58030427 0.28279188 0.11449408 0.04509506 0.12432631 0.6022102 0.4059162 -0.026467565 0.12384476 0.6212492 0.6198866 0.5920148 -0.052112512 -0.17791629 0.058564402 0.09127259 0.6157176 0.12256839 -0.2621316 0.28743932 0.31812322 0.28225183 0.5641709 -0.17112182 0.117824376 0.34659356 0.3545859 0.30800784 0.47312063 0.3466803 0.4335121 0.006412346 -0.032804616 -0.017652558 0.10008671 0.1487031 0.024471823 0.36546448 0.3982181 -0.17936972 -0.043333262 0.39620754 0.41820723 0.113517836 -0.15685003 0.017926235 0.39023837 0.4174981 0.4531628 0.36463615 0.11657128 0.10131374 0.36914057 0.49187368 0.41134143 0.13310471 0.1608237 0.18065527 -0.08588764 0.5590857 0.50633734 0.22764386 0.18806899 0.2489946 0.38874352 0.36971158 0.60655236 0.58034253 0.4650405 0.22127843 0.5771019 0.5527344 0.32872692 -0.2442027 0.007092355 0.6031125 0.5494966 0.43357474 0.36122313 0.4272486 0.39115077 0.60917366 0.6296985 0.6082412 0.5185731 -0.099499926 0.53508705 0.58018565 0.62947136 0.6470949 0.60316366 0.5450913 0.58799654 0.59907854 0.6228132 0.5463019 0.55553526 0.5826725 0.61890733 0.55850065 0.41352636 0.18516757 0.064461395 0.12482263 0.16536501 0.19472046 0.7856754 0.12225312 0.7387866 0.788955 0.847834 0.8571577 0.0033296198 0.1174109 0.6266672 0.7185899 0.8512423 -0.15106529 0.44715393 0.038463276 0.31897482 0.45200676 0.654634 0.68794155 0.020940367 0.42448276 0.50566316 0.5858433 0.40295658 0.41720003 0.30898458 0.23867989 0.22631122 0.1103604 0.6737178 0.504387 0.4622236 0.45883244 -0.20679137 0.1585997 -0.039591406 0.6473106 0.5597744 0.5607344 0.12535682 0.14812373 -0.3399009 0.30450222 0.5608536 0.21500249 0.09265962 0.14208105 0.3934454 0.5247489 0.124973916 0.4147336 0.031129185 -0.15829101 0.14877382 0.14138247 0.54099 0.12075338 0.2413212 -0.35032934 0.1515977 0.61788356 0.6071849 -0.15679921 -0.18465789 -0.12365136 0.5948719 -0.2331432 -0.12728043 0.257343 0.4925673 0.51891226 -0.17493117 0.009200156 0.22168364 0.28118354 0.37021893 0.45473152 0.4520004 0.4751985 0.42359352 0.48300004 0.40573174 0.3877672 0.48490068 0.492768 0.38186216 0.08706631 -0.21992034 0.41880542 0.3952371 -0.04904163 0.30168283 0.49001816 0.47448522 0.15838933 0.29649636 0.34156376 0.51842487 0.40093905 0.42399263 0.30559683 0.14204392 0.06801501 -0.24413784 0.2990612 0.32437158 0.5685463 0.56848645 -0.10274186 0.39771032 0.3039619 0.613198 0.31375286 0.19309449 0.2610237 0.56079245 0.33363393 0.34743246 0.3416948 0.25383365 0.47998124 0.58615196 0.45188844 0.37941128 0.2855756 0.39182907 0.36361596 0.63714415 0.6010569 0.35190487 0.37590486 0.407197 0.27565965 0.510947 0.5232491 0.57321274 0.5596196 0.4697946 0.45660752 0.57807934 0.6409397 0.65569055 0.49217618 0.5399017 0.3560317 0.5658657 0.58336174 0.61392444 0.5871527 0.48959494 0.4578377 0.58597326 0.60366756 0.6350548 0.6055214 0.5517778 0.63152564 0.5834383 0.56140697 0.3213497 0.2600559 0.27181247 0.5121354 0.328866 0.23884623 0.22588609 0.74564725 0.77066004 0.3230002 0.22822669 0.6427163 0.7127794 0.752197 0.79962194 0.8320749 -0.06665518 0.28019908 0.5060526 0.82884073 0.77558124 0.23446822 0.29174706 0.7323022 -0.106689855 0.41186216 0.042209975 0.62133884 0.00083988346 0.5123451 0.61944354 0.3220687 -0.075116955 0.67355937 0.4318195 0.32278058 0.69439185 0.56463134 0.44705182 0.46355027 0.47664976 0.27704966 0.10150449 0.08816304 0.585806 0.5586183 -0.021247186 0.53299755 0.4057036 -0.15968962 0.23145509 0.32797378 0.49265093 0.5038725 0.37662327 -0.13812608 0.14618745 0.45432228 0.503426 0.52222234 0.5132125 0.32822162 0.536806 0.314759 0.04505745 0.505115 0.14451253 0.19339307 0.44863647 -0.25122952 -0.31086665 0.1898925 0.47917718 -0.12809652 0.46518356 -0.066374764 0.25553745 0.48686194 0.1146051 0.50707376 0.25155634 0.5227563 0.50352246 0.43993664 0.14776383 0.33056265 0.29918015 0.29846722 0.547588 0.56746954 0.3629032 0.37271053 0.5296483 0.4113549 0.30217808 0.61175716 0.41903335 0.4910543 0.60057724 0.6360296 0.217439 0.30090666 0.66850615 0.6423844 0.5445913 0.46014076 0.28119364 0.36673117 0.55206263 0.5723222 0.60657275 0.63463193 0.5838083 0.4931121 0.41876024 0.91949433 0.88874894 0.8320168 0.6058519 0.866994 0.8501452 0.8121344 0.37456056 0.70461756 0.32004434 0.6166098 0.31296447 0.6676798 0.24765544 0.6423636 0.6296054 0.6239326 0.6818916 0.417028 0.047423013 0.18942688 0.05341194 -0.08079576 0.14176035 0.40594566 0.0647649 0.08143211 0.5516619 0.6558274 0.20502295 0.15428783 0.7107542 0.71502256 0.67331326 0.24897501 0.61792886 0.6410675 0.28130865 0.39937288 0.55830795 0.2454127 -0.09500769 -0.28794467 -0.11407112 -0.09414676 0.04265107 0.35339642 0.18428478 0.43557006 0.51163816 0.527842 -0.039481565 0.40755954 0.508688 0.5372788 0.539137 -0.028620064 0.06725355 0.34656018 0.4030701 0.48903567 0.03095828 -0.053486966 0.026966512 0.051007602 0.15677953 -0.051419675 0.120884106 0.18759389 0.38129076 -0.14771605 0.43599564 0.47455263 -0.069347754 0.23456043 0.27306968 0.5436622 -0.09892413 0.15791167 0.32132852 0.24223259 0.55173314 0.5305415 0.49414545 -0.20082311 0.16834536 0.20633632 0.30559823 0.26133335 0.75603354 0.38588044 0.28565615 0.3244094 0.638203 0.65861535 0.17712608 0.11651934 0.34618032 0.5831527 0.41502166 0.31026772 0.31678995 0.5438274 0.81270003 0.7571654 0.71950036 0.57617295 0.64191395 0.6241437 0.5397812 0.48053133 0.47976464 0.8376309 0.8155395 0.7420559 0.47954768 0.32760227 0.35144126 0.4137792 0.5466344 0.5944214 0.5871104 0.45233953 0.40298688 0.9085545 0.8938507 0.8221662 0.92828566 0.8894572 0.7770393 0.5475748 0.4290839 0.89414954 0.91304576 0.37434587 0.30726087 0.8608145 0.3005099 0.80849946 0.3222052 0.66402805 0.3007569 0.45659462 0.53648734 0.44035912 0.43120328 0.1925079 -0.092748 0.09753241 0.050000332 -0.002029635 0.24092793 0.37817422 0.2622395 0.2853207 0.055917248 -0.0034865886 0.3741867 0.51642144 0.14623402 0.6694151 0.6866678 0.11837395 0.6404772 0.66215336 0.10498991 0.6047515 0.12493083 0.5044741 -0.08714081 -0.19923608 -0.15027721 -0.22025537 -0.06166134 0.26149645 0.12619723 -0.48223934 -0.5942732 -0.56189156 -0.49185228 -0.041249614 -0.022842657 -0.3900727 0.34325966 -0.01712329 -0.2506603 0.07401699 0.07406941 0.1400781 0.19253156 0.32548794 0.42718405 0.11292416 0.16446814 0.18659982 0.22086167 0.37398875 0.49710533 0.4873566 0.13404241 0.5374878 0.41908854 0.35355672 0.37354743 0.48884773 0.4405468 0.30072597 0.49457136 0.29400927 0.182971 0.24052766 0.27765962 0.5493234 0.58471066 -0.005245149 -0.047378123 -0.059666276 0.31896707 0.61685765 0.7179483 0.3845129 0.3131647 0.4402669 0.53013724 0.5202727 0.47427535 0.117425576 0.7632022 0.57766134 0.6084595 0.556744 0.11785752 0.61396885 0.79598963 0.84290755 0.82510215 0.7693144 0.68513954 0.27406213 0.4325052 0.30115518 0.41049534 0.54011565 0.5153606 0.836509 0.86578476 0.8655582 0.7925066 0.40687007 0.2660671 0.31222102 0.9132183 0.9103941 0.84300137 0.7527312 0.5719526 0.43867707 0.8829553 0.88638985 0.4823976 0.3966118 0.3126269 0.8154212 0.30825603 0.29325506 0.77249277 0.3540465 0.3438989 0.2379875 0.27689672 0.1612609 0.20228712 0.14656255 0.087927565 0.11921962 0.22103935 0.11404398 0.00010795146 -0.13407665 0.042703323 0.3044958 0.15864277 0.26660976 0.21095282 0.36307406 0.49956298 0.6106657 0.51468015 0.5985119 -0.037952736 0.4498368 0.57409143 0.3138593 -0.19626474 0.24587949 0.21108024 0.024848688 0.0002952069 0.014892496 -0.11561051 -0.01620695 -0.20839708 0.04176265 -0.017770618 -0.457125 -0.26337132 0.28526208 -0.14582184 -0.12452207 -0.35769883 -0.28606868 -0.16995361 0.3315376 0.3208598 -0.14572 0.3786711 -0.09150592 0.029299166 0.38730383 -0.068957254 0.07403689 0.09162263 0.42617685 -0.06185864 0.14134167 0.1607543 0.37314326 -0.054301314 0.26653603 0.30984074 0.4106753 0.45660827 0.4136591 0.48546627 0.16225311 0.15397573 -0.07312177 0.43034786 0.42827657 0.5056833 0.46152663 0.39046013 0.27134275 0.40527296 0.24747097 0.38597375 0.40594953 0.40909594 0.5081585 0.4533864 0.27075884 0.4771117 0.48175925 0.38558137 0.21100733 0.32341775 0.1635085 0.5188275 0.54772353 -0.05735031 -0.08687432 0.15552822 0.36883432 0.3282143 0.2509432 0.56539613 0.66065764 -0.022075303 0.35595345 0.39381287 0.4507751 0.64300764 0.63572234 0.68313277 0.71177757 0.50965524 0.6194725 0.63429856 0.76913375 0.748411 0.6316651 0.42496526 0.49899334 0.55963707 0.60448354 0.83380616 0.87874156 0.87825805 0.780728 0.8535013 0.81973124 0.72629356 0.82882357 0.7065456 0.58716506 0.46052358 0.39436635 0.798605 0.7270969 0.62158334 0.49136567 0.39200664 0.3313246 0.32400867 0.75498116 0.7045975 0.3718928 0.39081421 0.38107935 0.73628294 0.520188 0.38879994 0.30493093 0.29831463 0.28136754 0.14206867 0.24350323 0.41245097 0.34250948 0.35183796 0.33893666 0.31640232 0.2643176 0.17257304 0.281286