# vtk DataFile Version 2.0
Really cool data
ASCII
DATASET POLYDATA
POINTS 4567 float
-8.743374 16.940882 2.0232234
-8.791489 16.970728 2.4528441
-8.771507 17.424124 1.8616577
-8.859034 17.364937 2.4486027
-8.668745 17.181147 2.959552
-8.720328 18.071589 1.7835193
-8.612078 18.600943 2.3840082
-8.162663 16.418854 2.3125591
-8.080336 17.12786 1.2184113
-8.350941 16.796371 1.7696996
-8.362321 16.585363 2.4171417
-8.298921 16.749985 2.9813654
-8.42689 17.724352 1.2514509
-8.587589 17.571533 1.5139478
-8.223763 18.117403 1.123301
-8.023695 18.630787 4.07751
-7.7502794 19.730703 1.2982166
-8.115667 19.293737 1.521501
-8.437375 19.55066 2.704855
-8.314165 19.640064 3.832791
-8.197483 20.10618 2.7767034
-8.153743 20.232586 3.3614025
-7.928816 20.107672 4.20596
-7.6587496 16.38222 2.3169458
-7.6921277 16.639671 1.7662854
-7.9075465 16.514988 2.7797773
-7.7090516 16.668524 3.0305066
-7.6050005 19.862457 1.290265
-7.5306926 19.455143 4.5785975
-7.036505 20.476276 0.9455645
-7.6193595 19.903997 1.32798
-7.424433 20.257473 4.5128455
-7.228885 21.15007 1.4975101
-7.38299 21.416489 2.3546937
-6.942442 21.603722 4.4130664
-6.855501 22.290926 2.8999064
-6.887218 22.27265 3.4702613
-5.600157 14.726829 7.656664
-5.750513 15.194392 8.400765
-5.939829 15.44777 7.722063
-6.020482 15.817627 8.348319
-5.787219 15.778055 8.808219
-6.8999405 17.294994 1.2314353
-6.9895964 16.911486 2.9817593
-5.978881 16.471647 7.6878314
-6.0093555 16.237001 8.469631
-5.7635546 16.428114 8.902742
-5.7326636 16.9684 7.653239
-5.7124176 17.39468 8.19554
-6.731244 18.79057 0.8179135
-6.702445 19.146284 0.7801664
-5.903614 19.902443 6.05918
-5.9275293 20.537094 0.004619509
-6.492418 20.503984 0.4974937
-5.7469873 21.063395 0.11834599
-6.230301 21.14506 0.49369127
-5.926901 21.25643 7.029423
-5.9968605 21.807098 0.93347764
-6.026864 22.376297 1.9626325
-6.565196 22.592394 2.8485656
-6.563213 22.577772 4.2433357
-6.484447 22.107779 4.889815
-6.028384 23.046087 3.031186
-6.2958407 22.944456 3.5406604
-6.387955 22.803158 4.106737
-5.8267713 22.804897 4.9807453
-4.578624 13.061625 -4.446704
-4.759445 13.655209 -4.646919
-4.9529877 13.926416 7.0148983
-4.979425 13.846838 7.4253907
-5.0748544 14.071469 8.008639
-4.741924 14.328569 -5.0733438
-4.942463 14.537232 -4.3625565
-5.080817 14.73196 -3.713224
-4.908526 14.809403 -3.0631309
-5.5761795 14.743216 7.8962965
-5.3996277 14.595306 8.216382
-5.084536 15.188511 9.046698
-4.758562 15.507796 -5.118883
-5.0487576 15.523584 -4.463107
-5.1531334 15.757789 -3.3784368
-4.8757315 15.213568 -2.8677886
-5.256374 15.631469 9.148247
-4.6863804 16.059978 -5.104719
-5.0543604 16.116076 -4.4511366
-5.135372 16.361526 -3.739058
-5.6736965 17.405842 2.2790816
-5.2275496 16.39101 9.355907
-4.8642907 16.912672 9.5806055
-4.7865562 17.24539 -2.8031406
-4.895984 18.015862 0.59511524
-5.826887 17.47067 1.8523717
-5.56554 17.54522 3.42088
-5.057161 17.418646 9.384363
-4.8230515 17.323086 9.612074
-5.044601 20.273363 -0.69806635
-5.100712 20.57411 8.176107
-5.147225 21.017994 -0.70398945
-5.286793 21.445997 -0.19364429
-5.535299 21.242243 7.6709995
-5.401404 21.248547 7.812365
-5.168415 21.823315 0.030956835
-5.31552 21.991508 0.5733783
-5.4260097 22.331812 6.400089
-5.1326084 22.161928 7.313526
-5.015307 22.00828 7.8681254
-5.158428 22.576054 1.9481003
-5.6706524 22.950392 2.730108
-5.666134 23.264858 3.6629894
-5.3880167 23.285284 3.9891298
-5.513389 22.70239 5.5880604
-5.130215 22.675087 6.423882
-3.82006 13.170661 -5.8015776
-4.071703 12.846873 -5.223463
-4.1768665 12.771478 -4.5012407
-4.0398955 12.805107 -4.084647
-4.19267 13.319914 6.9294224
-4.4826984 13.3631 7.449282
-3.9950569 13.5048 -5.8697515
-4.3568435 13.493314 -5.4881997
-4.3290205 13.575967 -3.6203935
-4.3371987 14.166703 6.23513
-4.508593 13.564853 6.9038672
-4.522973 13.491282 7.5847154
-4.4268446 13.654348 8.142316
-4.1310873 14.644507 -5.9076147
-4.4737372 14.283746 -5.490396
-4.4462514 14.367937 -2.9130177
-4.2092247 14.550348 8.943767
-3.999679 15.1906595 -6.0745373
-4.3591514 15.426611 -5.6229587
-4.626729 15.241922 -2.5834522
-4.4315944 16.339903 -5.3707438
-4.354746 15.97834 6.03193
-4.1970735 16.563047 9.845308
-4.355193 17.272661 -5.2520933
-4.6561055 18.071117 0.111961305
-4.311641 17.461039 9.83883
-3.9414458 18.414396 -5.198952
-4.3545456 18.344818 -4.389528
-4.4951277 18.156103 9.597233
-4.111116 18.353853 9.733714
-3.7337582 19.194277 -5.0074058
-3.72552 19.737108 -4.72776
-4.082597 19.409336 -3.5506997
-4.0322313 19.082714 -3.016451
-4.070462 19.510582 -1.7343981
-4.554332 19.247202 8.616251
-3.7054875 20.015343 -4.253079
-4.2783775 20.419426 -1.6480812
-4.563206 21.240326 -0.88697326
-4.7193003 21.580204 -0.6283641
-4.4861507 21.529926 8.510901
-4.1678023 21.725214 8.696145
-4.3382225 21.677118 -0.7039927
-4.372805 21.974857 -0.2567282
-4.3518457 22.211771 0.5332574
-4.1563454 22.268501 1.9639173
-4.1579366 22.042408 8.532455
-4.343272 23.37215 5.461016
-4.4876738 22.92334 6.6295795
-3.9172761 23.528736 5.2084527
-3.6515043 29.97315 -13.013429
-3.9027944 29.72194 -12.296432
-3.9950461 29.692299 -11.581195
-3.9737935 30.020103 -10.5523815
-3.7197888 29.907976 -9.843477
-3.842321 30.561047 -12.87757
-4.0142426 30.380623 -12.466498
-4.186706 30.246805 -11.601184
-4.157578 30.442085 -10.635128
-3.8870058 30.465645 -9.643675
-3.7309995 30.523108 -9.246373
-3.9292686 31.370443 -12.508803
-4.134776 31.421532 -11.246671
-4.1482882 31.491264 -10.400267
-3.992013 31.365938 -9.608864
-3.7633417 31.254152 -9.205561
-3.826517 31.873598 -12.439388
-3.7072911 32.31922 -11.331481
-3.8861938 32.06713 -10.747044
-3.9077442 31.954292 -9.960095
-3.6130242 12.479443 -4.929473
-3.3652995 12.46465 -4.7498827
-3.3731186 13.061309 -5.90477
-3.4904454 12.607231 -5.2931957
-3.6052167 12.552977 -4.4692874
-3.4822347 12.843238 -3.909611
-3.3738909 13.142144 6.630247
-3.7957919 13.154064 7.397422
-3.6778886 13.391416 8.011164
-3.0005496 14.12009 -6.554396
-3.3190095 13.667167 -6.272137
-3.622738 13.301953 -3.4867268
-3.2975624 13.712968 -3.2135386
-3.5382893 13.563921 6.225021
-3.7555065 13.606289 8.424852
-3.396422 14.052633 8.962148
-2.995085 14.205733 -6.586688
-3.5080214 14.495889 -6.334703
-3.9029236 14.462965 -2.757762
-3.3941634 14.337566 5.8934484
-3.266997 14.525264 9.231879
-2.8943083 15.421936 -6.7689266
-3.1463408 15.638115 -6.54907
-3.6226459 15.782137 9.786099
-3.4818583 16.463167 -6.239878
-3.099123 17.203003 -0.22917594
-3.023934 16.300457 6.094877
-3.3602836 16.603582 10.025122
-3.0366182 17.847288 -6.280671
-3.269966 18.399729 3.6119945
-3.4118865 17.395567 10.052408
-2.7791336 19.283257 -5.889739
-3.356592 19.359638 -5.3615956
-3.1525826 20.076286 -5.0250573
-3.07174 20.410545 -4.636752
-3.0586863 20.674154 -3.9492207
-3.3097012 21.532816 -1.3489088
-3.3371303 21.373352 9.247082
-3.1140552 21.636026 -1.2958646
-3.5273175 21.94842 -0.36110035
-3.553827 22.14734 0.43039423
-3.283826 22.166428 1.1390135
-3.842009 22.418383 2.8062696
-2.800343 21.921062 9.490132
-3.7998025 23.40311 4.3728504
-3.6766489 23.30357 6.7580066
-3.6449497 22.798992 7.9789934
-3.3421853 29.087011 -12.29914
-3.4798515 29.148895 -11.560826
-3.0953503 29.015516 -10.906986
-3.3932939 29.575045 -12.942447
-3.5904152 29.36281 -12.529004
-3.5933208 29.50568 -10.367722
-3.234537 29.60463 -9.588978
-3.1290622 30.416965 -13.661355
-3.293363 30.235584 -13.417469
-3.3323646 30.688534 -8.975942
-3.4045017 31.013319 -13.339611
-3.5462887 31.47881 -9.120728
-3.4770203 32.15008 -12.50451
-3.4085145 32.26877 -9.584875
-3.1367593 32.73744 -10.316578
-2.8791313 32.67077 -9.488488
-3.0883815 12.475442 -4.8512297
-1.9308317 12.464354 7.1436067
-2.7831838 12.932279 -5.805175
-2.655785 12.725566 -5.2939544
-2.7879074 12.619913 -4.610763
-2.9981925 12.801216 -4.0003037
-2.3084443 13.035056 5.985213
-2.245421 12.61553 6.6330614
-2.2752354 12.694104 7.3038464
-2.377655 13.126076 8.124161
-2.0213223 14.047134 -6.635587
-2.5248425 13.754427 -6.41047
-2.7199442 13.510986 -3.5218666
-3.061834 13.457665 -3.3612747
-2.0490544 13.800296 5.5731244
-2.3686945 14.099216 8.9497795
-2.1269844 14.555146 -6.888732
-2.2491152 14.789358 -2.9871352
-2.3952005 15.40633 -6.9443097
-2.8070128 15.967134 -2.2313786
-2.771379 15.060031 5.7909365
-2.619292 16.393978 -1.7203934
-2.3900154 17.121353 -0.032474734
-2.7696679 16.988218 10.160853
-2.6929493 17.212732 -6.679098
-2.554501 17.55982 1.2671999
-3.0906544 18.590237 4.509285
-2.5476484 19.09827 -6.028577
-1.6886785 19.242935 10.675702
-2.4300134 19.923119 -5.7458744
-2.053096 20.226244 10.105517
-2.1223516 20.69211 -5.093876
-2.562546 20.836157 -4.431395
-2.0425158 21.145079 -3.7669106
-1.8732426 21.689425 10.860514
-2.6753092 21.87048 1.4363998
-2.94043 22.434467 2.7191765
-2.0280612 22.54839 10.43965
-1.7807577 22.103083 11.027427
-1.8040866 22.919294 3.1715071
-2.7727878 22.682688 8.439258
-1.968818 22.972445 9.386874
-1.8262783 22.93895 10.417541
-1.7130125 22.832914 10.831799
-1.826131 24.114452 3.065477
-2.3467903 24.286499 5.851205
-2.3562884 24.146395 6.3166866
-2.5024912 23.787113 6.9639683
-1.6451347 24.96977 3.098369
-1.7031921 25.252789 3.6547413
-2.1744075 24.65852 5.1796293
-1.7560275 29.114435 -14.057183
-2.7831924 28.872833 -12.674345
-2.414376 28.69814 -11.229766
-2.716945 28.973211 -10.342808
-2.414485 29.085163 -9.816056
-2.2959087 29.7855 -14.102319
-2.5380611 29.647785 -13.542124
-2.5398872 29.687042 -8.952463
-2.1672442 30.615921 -14.977317
-2.299992 30.388712 -14.67305
-2.423625 30.889862 -8.527334
-2.7696946 31.554516 -8.72887
-1.7327693 32.841686 -16.79354
-2.1783028 32.403442 -15.174979
-2.6524065 32.606495 -12.944109
-2.6022751 32.481926 -9.079305
-1.8020303 34.110867 -17.716446
-2.0078158 33.83335 -17.246239
-2.2518585 33.932743 -16.348068
-2.1792867 33.898533 -16.019592
-1.7688719 33.768055 -13.667213
-2.3388278 33.31097 -10.248349
-2.3616836 33.10151 -9.70855
-1.9653156 32.755245 -9.038864
-1.8219912 34.523 -17.729067
-2.080908 34.406773 -17.316963
-2.1743505 34.55835 -16.73033
-2.1042762 34.361763 -15.718265
-1.8113105 34.725204 -14.339594
[...]
POINT_DATA 4567
SCALARS features_00 float 1
LOOKUP_TABLE default
0.77191246 0.7702654 0.7528064 0.7570829 0.769063 0.6842644 0.64742684 0.7685552 0.7619535 0.770913 0.7734225 0.7539966 0.7150749 0.74199814 0.64693445 0.57078415 0.447294 0.5298286 0.5766063 0.543329 0.5459639 0.5352828 0.49819624 0.7532419 0.77539754 0.74899054 0.7206633 0.4215707 0.39928788 0.31601503 0.4205286 0.42191252 0.34236783 0.4480894 0.39092082 0.46752703 0.4649856 0.5498898 0.59187245 0.5600066 0.6020716 0.59710574 0.79463434 0.6809941 0.5921618 0.60618025 0.59601974 0.5961668 0.5777297 0.48265123 0.4018433 0.32114777 0.2790418 0.3063016 0.30521742 0.2991556 0.34989852 0.34246096 0.42038798 0.4642189 0.4292037 0.3594334 0.45102978 0.45350718 0.43442065 0.3584221 0.93224406 0.8959958 0.5455479 0.5754998 0.5836414 0.67922676 0.71181166 0.7274411 0.73160434 0.57419306 0.58310056 0.5781983 0.52008486 0.57354933 0.6385993 0.68434954 0.5711014 0.46685117 0.5133641 0.5606683 0.5178359 0.54293317 0.4688351 0.52883774 0.41688854 0.5229856 0.39767084 0.4502869 0.43268088 0.2384728 0.23750165 0.30033022 0.32846433 0.31540743 0.3045618 0.34605342 0.35773748 0.29972067 0.32093483 0.31088826 0.38797373 0.43847424 0.4307484 0.40832427 0.30626673 0.2917897 0.8301579 0.90136325 0.90693647 0.86756563 0.57573915 0.5801198 0.77549285 0.82913506 0.8355806 0.55768144 0.5590894 0.58208513 0.57152313 0.58254886 0.6602988 0.7530806 0.57950103 0.5113721 0.49323243 0.6449815 0.42150056 0.5459789 0.42537493 0.36729294 0.3204931 0.38642496 0.3403368 0.33155525 0.36246693 0.32385814 0.36638176 0.38587877 0.2997852 0.21285123 0.18139501 0.23907179 0.3849778 0.23612645 0.32782507 0.34117958 0.2599209 0.25359917 0.34971166 0.35427475 0.35339022 0.18530107 0.26612782 0.27284157 0.27343234 0.24772817 0.4924081 0.5655381 0.64501315 0.6835923 0.6719097 0.5183497 0.5581053 0.65579045 0.7005491 0.691311 0.6855818 0.5799097 0.6806582 0.6973861 0.69204056 0.68562967 0.5729579 0.6037996 0.652518 0.6646302 0.8975993 0.88729954 0.8228768 0.8938897 0.8803253 0.8314256 0.6274273 0.5753265 0.5557504 0.6352116 0.70207405 0.7925518 0.7241205 0.6236898 0.55224144 0.51362044 0.6265634 0.597052 0.6706505 0.6350415 0.47191626 0.53345144 0.49812514 0.45553654 0.41442782 0.091459736 0.4295527 0.3638135 0.3613178 -0.065896325 0.32174253 0.37686452 0.37815168 0.3997302 0.40078384 0.36889854 0.31489825 0.1940175 0.30511993 0.33453393 0.30666167 0.19992958 0.124199085 0.2549842 0.29645175 0.19753692 0.23424576 0.55910945 0.6372533 0.6214256 0.48181647 0.5308331 0.65750325 0.6409387 0.4207669 0.45029378 0.67673886 0.4573002 0.6677498 0.5333308 0.6136899 0.5450252 0.5236323 0.8791603 0.6589291 0.8263682 0.8660436 0.8453009 0.8123967 0.7155252 0.6919643 0.63028073 0.54574907 0.6644788 0.6792882 0.7252408 0.74361247 0.6208413 0.40513122 0.622172 0.48960438 0.5699083 0.39170063 0.52473557 0.09865202 0.17667279 0.2697513 0.43539774 0.26840407 -0.07794905 0.36755437 0.30642778 0.40291297 0.3461486 0.38105464 0.3751291 0.30118304 0.48588556 0.095359884 -0.173017 0.48329788 0.5417115 0.10345055 0.17435351 0.37767673 0.53704315 0.5795862 0.33663392 0.15902713 0.1544863 0.12201941 0.4799347 0.52682054 0.23656201 0.4525637 0.52482015 0.52398914 0.5706128 0.54515064 0.390958 0.41914093 0.65672666 0.32945135 0.34984368 0.6289939 0.6074649 0.59672797 0.3963163 0.38692743 0.50931084 0.76289344 0.7337456 0.70384395 0.6635743 0.2931458 0.38615948 0.42361924 0.4179394 0.79168963 0.7732979 0.75199616 0.6300777 0.42468888 0.7975452 0.7472544 0.64379656 0.51639307 0.72029406 0.69823563 0.801949 0.7915985 0.72624356 0.7296109 0.6406535 0.54379416 0.6739063 0.70111924 0.6652464 0.6279031 0.5993839 0.6831411 0.519657 0.38701123 0.6431539 0.51913846 0.25602323 0.6374893 0.4432177 0.5330739 0.25648046 0.5107243 0.2952919 0.328596 0.3686045 0.43384805 0.32557434 0.30491376 0.24596074 0.24174452 0.55592567 0.6511837 0.6318115 0.3323415 0.6201347 0.65520597 0.38764724 0.3965305 0.19785005 0.5785115 0.66711277 0.51095235 0.55444443 0.33024234 0.56885725 0.5402491 0.38841003 0.31610525 0.7443811 0.75511914 0.4099416 0.45672095 0.33137664 0.3562106 0.4589181 0.6753726 0.6943066 0.74034977 0.72341835 0.6712037 0.394968 0.6365666 0.67294294 0.6586094 0.66305566 0.67088264 0.35513973 0.35687232 0.51775026 0.6149893 0.61933297 0.53557795 0.40326494 0.38547456 0.7218512 0.69337976 0.3296054 0.78863585 0.28556383 0.29512763 0.8344383 0.8251934 0.77328 0.6140602 0.4627681 0.31142873 0.8493912 0.7613475 0.6404254 0.7500074 0.7499782 0.69002014 0.61174583 0.6760937 0.64550793 0.5830598 0.6207812 0.6752745 0.6637415 0.6479694 0.5846353 0.51772726 0.501183 0.5881252 0.23061278 0.6632103 0.43106794 0.20436174 0.5385442 0.110348575 0.25635847 0.42686176 0.26060724 0.32533807 0.2925726 0.33248794 0.33753723 0.3155269 0.32813764 0.35178673 0.5894313 0.5328767 0.3898199 0.61211085 0.60235983 0.23147899 0.14379254 0.62712103 0.25281125 0.6597996 0.6667801 0.686326 0.45799816 0.6307879 0.6767895 0.69273096 0.4083957 0.5957111 0.7139743 0.58260065 0.57005507 0.5563041 0.470375 0.26773542 0.59047115 0.6996368 0.748936 0.72054315 0.3893023 0.40179464 0.30504572 0.020248666 0.6546774 0.3786595 0.62548023 0.63971364 0.2876014 0.4302836 0.58864534 0.60678315 0.60264957 0.57970834 0.27470598 0.28731024 0.29045013 0.68298817 0.2363168 0.76702803 0.22791463 0.8691176 0.264507 0.30842406 0.22975156 0.89871573 0.80951536 0.673023 0.49746346 0.732286 0.732835 0.6740773 0.62191856 0.6902876 0.54098725 0.43307322 0.62501013 0.57192564 0.5012252 0.61342907 0.6347239 0.26889557 0.33573496 0.541911 0.34554693 -0.10767999 0.33804783 0.33350334 -0.09605397 0.16180724 0.34200478 0.43475002 0.4622147 0.32252872 0.3235048 0.31683254 0.5264807 0.32241204 0.3356868 0.34037292 0.26707458 0.32671493 0.31823793 0.5483448 0.59730774 0.1778979 0.14365561 0.4472103 0.42859727 0.6064 0.60397995 0.60866225 0.5016893 0.3920834 0.1184556 0.24158454 0.63618356 0.617298 0.61637354 0.59169775 0.48385075 0.21215972 0.22225243 0.6902472 0.6805073 0.6076885 0.5963033 0.3820979 0.63295484 0.6963224 0.68951106 0.5758428 0.58022463 0.430545 0.4346283 0.5847955 0.6378974 0.6822029 0.48357308 0.40397716 0.36792946 0.15859565 0.26077083 0.4556117 0.52624923 0.6035161 0.56499124 0.5542195 0.47757053 0.42840254 0.008262243 0.22498477 0.13352461 -0.1496763 -0.06842447 0.60014737 0.65750206 0.55582726 0.53707576 0.5424391 0.3081172 0.21985781 0.33378094 0.4305647 0.4643884 0.38675573 0.09512883 0.61856526 0.18050873 0.69576263 0.23502931 0.7953205 0.38527727 0.34484276 0.81781447 0.87033635 0.8056873 0.7349942 0.495679 0.45109898 0.45986825 0.6946342 0.6768851 0.6988696 0.66893125 0.63396466 0.5833044 0.62233925 0.5994514 0.53292274 0.5208833 0.3816201 0.51944244 0.059146486 -0.15320182 0.043058984 0.12149457 0.50719136 0.22824597 0.13340665 -0.0012673736 0.4987805 0.36594105 0.33144882 0.41501707 0.46862394 0.11392213 0.3325123 0.5497618 0.54543364 -0.1294207 0.3889102 0.63471115 0.6388128 0.56765544 0.25009778 0.13777539 0.21653199 0.558075 0.6182034 0.6267781 0.62498546 0.64323545 0.57689834 0.56013465 0.57281375 0.12221552 0.22531222 0.53731763 0.6730437 0.5798142 0.60288656 0.6386677 0.51677775 0.34827626 0.46828687 0.56587243 0.4885725 0.55093586 0.42253345 0.41972265 0.27845442 0.5403465 0.59123814 0.37928498 0.28610003 0.31458902 0.32478514 0.22635326 0.5290418 0.39894664 0.39932567 0.382316 0.09043994 0.17300513 0.32937002 0.30427107 0.30571276 0.5061269 0.22343986 -0.043063857 0.066451296 0.054717783 0.37030947 0.2749117 0.28914368 0.16034433 0.2959835 0.33374667 0.2644555 0.34177697 0.08090078 0.42260897 0.21344227 0.6152166 0.511986 0.35760272 0.66279197 0.6898756 0.6591358 0.55208564 0.5274708 0.7760731 0.7899325 0.5122416 0.5228763 0.5444826 0.5392085 0.56528085 0.5621804 0.6087419 0.60684335 0.49899632 0.47737062 0.4386761 0.44722137 0.45354858 0.5707653 0.62441814 0.18539554 0.13723443 0.036280207 0.11968352 0.203649 0.3815549 0.6611765 0.6804732 0.2039011 0.19927615 0.2013814 0.33148897 0.30295187 0.27134988 0.63635194 0.24901968 0.18829235 0.17507717 0.5970374 0.33382326 0.5009629 0.14189583 0.15935232 0.41057092 0.51747847 0.42729604 0.17490038 0.38238055 0.61278677 0.63017225 0.63909453 0.6517728 0.49161473 0.25434986 0.43938494 0.35718656 0.1876989 0.3479132 0.35973847 0.44031906 0.60320425 0.6224661 0.38719627 0.45580447 0.48720148 0.32979476 0.6651567 0.27423492 0.35277092 0.42029607 0.4701521 0.51764244 0.5497951 0.48504424 0.30342698 0.32681584 0.400109 0.403104 0.44426844 0.3446504 0.18051402 0.24948898 -0.03999088 0.33632144 0.2020828 0.44759867 0.37504974 0.30143312 0.14673617 0.15338108 0.012437291 0.16206399 0.1430549 0.19587724 -0.11331022 -0.36359534 -0.10006168 0.10694587 0.32334507 -0.11294836 0.45748156 0.287133 0.18394953 0.2005814 0.1962402 0.16304111 0.032258317 0.18511558 0.22978882 0.4633124 0.1754905 0.34980062 0.37927827 0.41685987 0.5254036 0.4515934 0.56030595 0.5997257 0.6046274 0.59119785 0.59153926 0.5994302 0.43654072 0.5161259 0.11029036 0.13839658 0.13345629 0.09252339 0.074002884 0.3327307 0.44538435 0.36910048 0.42628956 0.5013691 0.67199814 0.73537374 0.15098804 0.13949706 0.48041326 0.3446507 0.34805125 0.54542863 0.769915 0.7480994 0.1435728 0.29559815 0.7664849 0.7120965 0.31970403 0.47506833 0.17663513 0.6411933 0.68289435 0.55901444 0.57541037 0.57053125 0.3755211 0.46726632 0.2685223 0.5123191 0.5586266 0.484638 0.3113931 0.34968027 0.4648099 0.52557755 0.23642291 0.17007108 0.16647506 0.5130478 0.26233864 0.28710005 0.34392172 0.45901716 0.32105103 0.32056415 0.32212692 0.32780886 0.27733225 0.35080892 0.28321093 0.14387032 0.021960922 -0.0022773277 0.040296257 0.1456998 0.23298779 0.15408753 0.14161853 0.3933415 0.1407475 0.10937488 0.23763543 0.4206009 0.28271186 -0.030554615 0.20214114 0.42213148 0.31572953 0.51280797 0.27845275 0.44444525 0.24343549 0.26268157 0.11686301 0.25386134 0.22269161 0.095254384 0.06188589 0.039706595 0.01912841 0.34676355 0.37981734 0.36163336 0.5818788 0.5723914 0.48542404 0.63928133 0.6438352 0.62823874 0.5807208 0.11829809 0.06216132 0.0937649 0.066680625 0.40137067 0.48802084 0.6887846 0.74636483 0.06939933 0.06453528 0.51515025 0.51526374 0.56962156 0.719427 0.78269553 -0.026632726 0.055328302 0.52653235 0.6706494 0.7834739 0.75650907 0.5191127 0.5505681 0.56757957 0.51678157 0.03258802 0.5942402 0.49970394 0.07201773 0.10187797 0.24803185 0.27891493 0.33987662 0.008479722 0.038757414 0.22789785 0.2968043 0.4699581 0.4547083 0.4548318 0.29267865 -0.025519714 0.098023534 0.37982324 0.36981 0.33649853 0.0064805485 -0.0599667 0.28434476 0.2763723 0.30594286 0.28715697 0.13273817 0.0052833557 0.15574262 0.25099754 0.1377728 0.27835596 0.25251353 0.30502528 0.43908104 0.2561662 0.4662394 0.50412446 0.48912653 0.4458111 0.30218226 0.3067339 0.449043 0.31919587 0.0784126 0.20347789 0.2782916 0.34677297 0.32912207 0.004409533 0.0414116 0.030254774 0.07866262 0.21009916 0.27635503 0.33526072 0.32242075 0.5441898 0.59491503 0.54799306 0.42094702 0.6465006 0.60255 0.09511634 0.281457 0.3205332 0.31829384 0.017050087 0.27971378 0.49073023 0.5312351 0.08771132 -0.008797891 0.5324208 0.04871214 0.0010385811 0.5342065 0.5285337 0.0208788 0.5510533 0.53681314 -0.0879983 0.6104503 0.46868452 0.016884763 0.7288389 0.4079811 0.44990224 -0.04613287 0.42812225 0.30971584 0.46889067 0.29531676 0.08110135 0.21139027 0.04120905 0.18356287 -0.06986821 -0.05299534 0.38713428 0.19682844 0.27488032 0.33601058 0.25646618 0.38206914 0.22280474 0.45335633 0.2797789 0.21690449 0.46323955 0.4617175 0.33440036 0.39368778 -0.016466675 -0.09371197 0.22779235 0.3436181 0.38937408 0.40050924 0.3886366 -0.025279777 0.016205616 0.34669837 0.120851964 0.13435313 0.21916595 0.09059165 0.23813197 0.350675 0.362498 0.046062477 0.21915467 0.36584044 0.3806567 0.082647964 0.50743115 0.08846548 0.43016717 0.5189762 0.53619003 0.5460877 -0.023604851 0.5938551 0.4044392 0.6297338 0.38120788 -0.011944704 0.027551107 0.32524472 0.55678064 0.63905585 0.4624563 0.43627584 0.44695008 0.3607221 0.27491316 -0.21626738 0.018614277 0.36040208 0.23485485 0.101759486 0.01334892 -0.09410926 -0.12253064 -0.09033921 0.2737981 0.22995403 -0.14627524 0.25026408 0.3131149 0.32939366 0.19292274 0.3106353 0.18942228 0.37424827 0.34775555 0.35652834 0.24762125 0.33423203 0.4170608 0.43965328 0.41726148 0.08596151 0.10799581 0.18407668 0.37716275 0.33934635 0.29055008 0.40877175 0.47135854 0.315299 0.3249993 0.3222786 0.28221077 0.24344662 0.15166387 0.19946237 0.3440576 0.40695435 0.4319503 0.25832552 0.18451522 0.035313185 -0.055534184 0.4086315 0.41794962 0.14178406 0.12879269 0.4109122 0.052696105 0.48466337 -0.035836194 0.514832 0.1662654 0.50653076 0.57392305 0.061175764 0.5370985 0.56347334 0.6083872 0.5151782 0.57811034 -0.013456166 -0.12897345 0.39043972 0.32617605 0.47238216 0.4061809 -0.25439668 0.1567875 0.37734002 0.1864846 0.44057888 -0.26159456 -0.14650132 0.033817153 0.22723803 0.41680872 -0.16396628 0.22671983 0.35918397 0.24059041 0.27092794 0.18863267 0.14955875 0.44887805 0.46003354 0.24394324 -0.022566114 0.052196756 0.39082748 0.39708352 0.33210725 0.23793624 0.14345658 0.17576781 0.24495663 0.26946777 0.3235294 0.40112507 0.42560655 0.5643395 0.50532204 0.12621719 0.31514168 0.29741687 0.22967628 0.34543106 0.32991472 0.6001727 0.4662676 0.4948924 0.5205165 0.5982836 0.62151706 0.390576 0.41046298 0.45378178 0.5253535 0.5301949 0.5752764 0.2915816 0.3270529 0.24457988 0.26695308 0.45002604 0.21761116 0.48152766 0.54988295 0.3953416 0.47041756 -0.15858401 0.28709975 0.3239833 0.24455896 -0.059253547 -0.12200852 -0.051143754 0.114816315 0.6582866 0.68493325 -0.1084872 0.68733907 0.7062153 0.39408776 0.30032054 0.19363609 0.7156311 0.43355334 0.49856663 0.046224132 -0.018298678 -0.03164746 -0.12166541 0.15471923 0.40173876 0.10790527 0.1997942 0.37701347 0.24453622 0.32126606 0.42050302 0.17049591 0.31888962 0.57911676 0.5502765 0.28557163 0.14218941 0.1902024 0.2407166 0.23773696 0.35231808 0.6475791 0.6559206 0.6329892 0.422746 0.2424011 0.17733902 0.5637822 0.60874426 0.5532303 0.26217932 0.2690133 0.29581767 0.5183401 0.54245055 0.6414723 0.6865487 0.67004216 0.45092738 0.4850008 0.5209582 0.647387 0.6435829 0.37235135 0.6201076 0.60058475 0.26559743 0.27562442 0.5367582 0.24936835 0.26941168 0.24400416 0.34689325 0.28683203 0.2166932 0.4386174 0.06994683 0.36847764 0.4691739 0.018924579 -0.14464255 0.12766518 0.20974627 0.2603117 0.43956268 0.3511415 0.5596106 0.60195184 0.63034403 -0.29447025 0.5283581 0.5823612 0.5540839 0.6051202 0.659017 0.67224103 0.67846584 0.41466552 0.37713027 0.07171437 -0.31549272 0.53622514 0.5945531 0.60748816 0.5584489 0.6229075 0.6921143 0.7044039 0.72394645 0.74646974 0.477059 0.44690007 -0.08815611 0.12229206 0.52085304 0.55765307 0.57276636 0.5480924 0.6738156 0.7016829 0.73275757 0.78108776 0.8006739 0.16332617 0.376929 0.7098972 0.7346285 0.5639827 0.23399481 0.14146964 0.16424331 0.47649467 0.04246235 0.11623805 0.122783795 0.17479086 0.36692905 0.26570338 0.35222346 0.28252864 0.33080173 0.32818204 0.46940088 0.45336002 0.63231575 0.41084576 -0.04494319 0.2167446 0.20832914 0.15361534 0.17515178 0.679801 0.7108189 0.68754566 0.43125528 0.53509617 0.013362758 -0.0075017028 0.013794228 0.17723972 0.58304316 0.6003086 0.55098903 0.1689637 0.20288123 0.5783341 0.6473787 0.6898004 0.692467 0.49488747 0.6521706 0.6350811 0.35695708 0.61056876 0.6358975 0.35200644 0.28861684 0.5421371 0.6377935 0.6263778 0.59642625 0.36347976 0.3457323 0.59199786 0.58344126 0.55924124 0.35108802 0.34876248 0.38204286 0.40328053 0.35336816 0.5094565 0.49328834 0.32235336 0.19101563 0.12561226 0.31043196 0.111405015 0.15167563 0.17675322 0.2355259 0.2670012 0.3126674 0.13537109 0.018234367 0.0944014 0.23137355 0.17492141 0.17635413 0.4102322 0.49053836 0.5129757 0.101610325 -0.4112237 0.12130813 0.3350529 0.2968444 0.23384385 0.22271371 0.5812511 0.5845875 0.15751891 0.4902546 0.43746412 0.3973717 0.41352582 0.6952374 0.44885248 0.11394919 0.44232023 0.45238614 0.40265965 0.47120586 0.784105 0.7673234 0.5064508 0.48263982 0.110333845 0.42817134 0.41598254 0.36779907 0.49878055 0.5341651 0.49380326 0.63322866 0.7935762 0.80066097 0.5270259 0.1771075 0.18133989 0.23730814 0.2045862 0.45567653 0.4913862 0.5183375 0.66918635 0.7389474 0.7616669 0.531913 0.26328954 0.14148185 0.19031574 0.21955776 0.24436712 0.44391292 0.20147975 0.27534476 0.3847894 0.35166892 0.3499626 0.20542774 0.36079937 0.3131976 0.38459623 0.31310233 0.3665642 0.34085122 0.5871972 0.26134002 0.54247165 0.5946703 0.663894 0.4724701 0.5038597 0.21181989 0.26785627 0.3616349 0.36367607 0.35231686 0.6501273 0.6848534 0.7113135 0.69466615 0.55195594 0.5786517 0.52784705 0.34715328 0.14815661 -0.1273376 0.021268606 0.34963164 0.58082473 0.5189365 0.4377543 0.5737236 0.62798566 0.66913056 0.67507386 0.49793896 0.68193996 0.66731596 0.374919 0.630805 0.621144 0.59327525 0.63745844 0.64909667 0.6301513 0.4000066 0.3689382 0.5189215 0.31255284 0.53253907 0.6281736 0.60622805 0.5976769 0.3881201 0.3846656 0.30974877 0.34114832 0.42177618 0.5658888 0.3629706 0.09801803 0.13754871 0.22036348 0.3376364 0.48652726 0.3808891 0.08297087 0.28886035 0.18199287 0.17700717 0.11643786 0.22929442 0.24287122 0.303437 -0.028567154 0.11700411 0.103197426 0.10309251 0.26104027 0.32930976 0.28779015 -0.16662303 0.17440513 0.17092481 0.32816783 0.2259221 -0.11248448 0.34029996 0.3439558 0.5515703 0.25519866 -0.27660075 0.5519881 0.5186214 0.49991018 0.4357366 0.42281446 0.66348076 0.738194 0.5236749 0.37936413 0.329067 0.47767064 0.47708374 0.7346616 0.50940573 0.49699837 0.44522956 0.19357617 0.23735839 0.19086269 0.47412658 0.43538508 0.7525375 0.73874104 0.5180644 0.2324516 0.22606283 0.14547826 0.31424707 0.50335866 0.4216217 0.39879102 0.23512788 0.48147082 0.7294638 0.745131 0.5046226 0.2791655 0.3006228 0.45475844 0.58081275 0.22053981 0.49721396 0.32403636 0.1514461 0.20428973 0.32664064 0.38045478 0.29037887 0.29843563 0.26453334 0.3093388 0.30600625 0.41390616 0.40729812 0.45084545 0.5688661 0.42773136 0.41126832 0.40378165 0.42570406 0.54260445 0.5761804 0.6201078 0.6582768 0.6519587 0.49931937 0.50578123 0.48065233 0.34668207 0.27110302 0.35552838 0.39155737 0.3941704 0.6209855 0.6460913 0.6722094 0.38860446 0.4117178 0.36797783 0.4308142 0.41382065 0.38577774 0.5726924 0.6118287 0.6431011 0.48208475 0.4695058 0.43898928 0.41242746 0.2866732 0.20905915 0.64037895 0.47800213 0.46567392 0.40397775 0.31971702 0.1935297 0.27073035 0.52330357 0.60600245 0.6330602 0.62372017 0.44633132 0.39199263 0.47911975 0.41279548 0.35001755 0.23534065 0.15683582 0.6076964 0.58639956 0.41664135 0.30352795 0.3753888 0.15411976 0.31290185 0.35967934 0.36272013 0.32997543 0.0015210658 0.13814402 0.14239773 0.019751027 0.3168344 0.35301834 0.35208863 0.26118523 0.08650679 0.12145926 0.35050634 0.40366673 -0.047524214 0.105871655 0.12059699 -0.009170033 0.63938797 0.6253016 0.5477595 0.2986083 0.5278734 0.4387024 0.009438276 0.59690535 0.48589122 0.4176677 0.6174 0.5930708 0.32578757 0.2269112 0.523041 0.613491 0.6801865 0.19692996 0.5533041 0.21768788 0.29799142 0.45605993 0.53110856 0.47567725 0.68222123 0.6832143 0.48392442 0.27029705 0.43476784 0.5209424 0.6307571 0.34043 0.62942076 0.45992795 0.34236553 0.19539188 0.641588 0.6358886 0.3638672 0.12653989 0.3560875 0.0979287 0.51768315 0.58740556 0.31547704 0.25509185 0.23909052 0.4125912 0.21928658 0.21860966 0.4401564 0.34909874 0.3202135 0.42887068 0.31167138 0.305855 0.4468401 0.5031433 0.5805248 0.6002599 0.6268985 0.45199707 0.11066364 0.28365636 0.39106044 0.4328674 0.439862 0.56603706 0.60724103 0.6419815 0.26037458 0.29448897 0.36299467 0.41367564 0.46080562 0.47807786 0.4663316 0.45297527 0.47523886 0.47393155 0.7712322 0.7411839 0.7047605 0.6817322 0.633521 0.54137444 0.5435922 0.53816426 0.3429224 0.31836078 0.45329875 0.40952834 0.30624828 0.31754002 0.28627956 0.52119297 0.49544507 0.18830466 0.38657627 0.5276197 0.5146884 0.3708831 0.3205737 0.52064073 0.481233 0.515463 0.6028415 0.46071404 0.45338088 0.4115039 0.11547361 0.45027447 0.