# vtk DataFile Version 2.0
Really cool data
ASCII
DATASET POLYDATA
POINTS 4365 float
-16.632935 14.822648 -7.523006
-16.583036 14.79171 -6.920977
-16.586483 15.252031 -7.903049
-16.737488 15.699585 -7.456601
-16.66344 15.591938 -6.730561
-16.641527 16.093254 -7.8525567
-16.661812 16.243591 -7.4120893
-16.642227 16.297827 -6.7373147
-15.770556 13.149641 -8.071257
-15.83711 13.206666 -7.718106
-15.66588 13.132515 -6.86616
-15.790992 13.74477 -8.718838
-15.9095 13.599962 -8.420998
-16.108822 13.606826 -7.51595
-16.045683 13.755326 -6.7584367
-15.854316 14.528954 -8.764106
-16.231394 14.47997 -8.308382
-16.458443 14.47427 -7.560968
-16.295805 14.503801 -6.4191656
-16.182116 14.887401 -5.8617473
-15.678951 15.108924 -5.210737
-15.9123125 15.820092 -8.6525345
-16.357765 15.551796 -8.246267
-16.242126 15.343264 -5.7545943
-15.947646 15.598171 -5.0315
-16.39895 16.236036 -8.024326
-16.434448 16.540665 -7.7241793
-16.437445 16.582388 -6.2544317
-16.188011 16.30757 -5.404502
-15.995228 16.530348 -4.736444
-15.788818 16.999054 -4.2939997
-15.997317 16.779024 -7.932431
-16.27812 16.85161 -7.5467687
-16.186035 17.147747 -6.3333325
-16.219128 17.49087 -5.304972
-16.021627 17.42101 -4.6196218
-15.726267 17.492474 -4.104969
-16.031363 17.878345 -5.9469585
-15.813599 18.322123 -5.4294634
-15.879075 18.04092 -4.754298
-15.594298 25.911573 -5.8309913
-15.643354 25.730518 -5.485689
-15.603643 26.164776 -5.5269985
-15.604567 26.075802 -4.996121
-15.19399 13.279528 -8.808748
-15.394073 13.043032 -8.334954
-15.302661 12.796851 -7.59863
-15.368475 12.90768 -6.907117
-14.952603 13.177932 -5.9400344
-15.402622 13.562158 -8.856357
-15.680366 13.46531 -8.681362
-15.356985 13.312133 -6.2827477
-15.473093 13.827188 -5.9476924
-15.045444 13.978617 -5.193298
-15.39089 14.509956 -8.992918
-15.21674 14.66953 -4.851151
-14.898896 14.972274 -4.3452773
-15.327476 15.653484 -8.8427305
-15.568296 15.788736 -4.520833
-15.452167 16.084677 -4.1404023
-15.321767 16.059843 -8.727837
-15.078239 16.509 -3.7235918
-14.764012 17.586048 -7.7228127
-15.544461 17.650671 -6.941288
-15.285304 17.623428 -3.7406397
-14.872803 17.213749 -3.3735619
-15.260822 18.275246 -6.7320824
-15.453103 18.728756 -4.5317106
-15.348638 18.566822 -3.9516315
-14.727518 18.390066 -3.0790665
-14.761393 19.3612 -6.160292
-15.385052 18.87659 -5.499738
-15.435415 18.765343 -4.558502
-14.858029 19.571106 -3.515697
-14.714987 19.29622 -3.1481874
-14.67977 20.195627 -4.667994
-14.727218 20.028748 -3.6738045
-14.732287 24.100819 -6.400286
-14.8480425 24.004576 -5.864704
-14.782967 24.022799 -4.9119306
-14.705606 24.828205 -6.8272033
-15.113274 24.706055 -6.1565533
-15.308121 24.77284 -5.58314
-15.35323 25.046438 -4.802003
-14.724259 24.983273 -4.157862
-14.853522 25.635155 -6.6851315
-15.329418 25.549484 -6.1808815
-15.508047 25.257523 -5.752842
-15.350343 25.664211 -4.515991
-14.964671 25.513803 -4.073161
-15.202815 26.303082 -6.1062937
-15.469938 26.496536 -5.4451036
-15.355533 26.40211 -4.8162966
-14.916007 26.237385 -4.0940905
-14.970961 26.715372 -5.940312
-15.147385 26.767935 -5.495896
-15.094118 26.735693 -4.836454
-14.284287 12.321874 -7.2613873
-14.087201 12.288433 -6.574663
-14.1045475 12.350852 -6.1991997
-14.8356495 13.200858 -8.860168
-14.795666 12.8060465 -8.32283
-14.740444 12.53986 -7.4926105
-14.375128 12.48311 -6.395859
-14.369445 12.831083 -5.8167977
-14.209084 13.197347 -5.2336097
-14.725701 13.6313925 -9.061335
-14.597109 13.847781 -4.8872247
-14.716606 14.481726 -4.5402
-14.04863 14.595496 -4.2162795
-14.078614 15.983209 -9.038478
-14.625472 15.270091 -4.1390953
-14.183065 17.007246 -3.170548
-13.667285 17.350046 -10.03197
-13.678753 17.873743 -9.900726
-14.717548 17.879223 -3.1745267
-13.5691805 18.755148 -10.232779
-13.654586 18.27788 -9.5576105
-14.322954 18.042141 -7.7145534
-14.28148 18.526611 -2.874575
-14.380578 19.26426 -7.077769
-14.417901 19.665321 -5.8413806
-14.178064 19.385555 -2.6542418
-13.966277 20.16628 -5.916254
-14.335172 19.917538 -2.9348795
-13.910744 21.67493 -3.7618525
-13.997205 21.048931 -2.9914725
-14.129798 23.364807 -6.312872
-13.748298 22.255247 -4.006552
-14.443371 24.177975 -6.8162565
-14.559646 23.838444 -6.3894796
-14.455917 23.705387 -5.198121
-14.07886 23.5828 -4.6959643
-14.198213 24.609116 -7.1061387
-14.033423 24.270475 -3.2756839
-14.394395 25.499617 -6.906514
-14.438467 25.46254 -3.5697784
-13.977437 25.373976 -2.9760475
-14.32574 26.13041 -6.6893873
-14.525891 26.461033 -6.4036255
-14.3194475 26.42356 -3.7340498
-13.960275 26.245178 -3.222384
-14.504257 26.812351 -6.0403333
-14.469496 27.041101 -5.4955263
-14.4565325 26.944101 -4.549753
-13.912555 26.827105 -3.7700977
-13.484434 12.209155 -7.2188334
-13.469735 12.212665 -6.648263
-13.952131 13.033691 -8.370587
-13.246147 12.494879 -5.9788413
-13.267531 13.11186 -5.1227417
-13.747124 13.697493 -8.668264
-13.719096 13.507693 -4.881117
-13.496644 14.174195 -4.310838
-13.251193 14.93049 -3.878567
-13.01407 15.9308815 -10.434734
-13.563582 15.681073 -3.6292193
-13.409059 16.307821 -9.86388
-12.957257 17.359346 -11.162619
-13.51536 17.177765 -10.259645
-13.522097 17.82539 -2.9022286
-13.168394 18.598888 -11.111169
-13.363182 18.609135 -10.428121
-13.4179945 18.68345 -2.589141
-13.27197 18.97948 -2.297755
-12.754473 19.44136 -11.980961
-13.123973 19.55661 -11.165971
-13.299019 19.464859 -10.56329
-13.064187 19.64601 -2.1826658
-12.67819 19.973124 -11.908913
-12.788324 20.234356 -11.289288
-13.106421 20.222076 -10.561953
-13.160752 20.273773 -9.649332
-12.777527 20.688301 -7.4453287
-13.147799 20.41284 -2.0219283
-12.862094 20.673635 -10.550346
-12.77486 20.693356 -9.902811
-13.452138 21.41154 -2.4807212
-13.430566 22.567146 -2.7260194
-12.764442 22.350952 -2.0351207
-13.508466 23.608301 -6.9262276
-13.100727 23.311714 -2.2918997
-13.517899 24.543262 -7.2417326
-13.397366 24.811638 -2.6457849
-13.363332 25.1569 -7.1610565
-13.330618 25.689781 -2.5954924
-13.8847885 26.332378 -6.6339464
-13.636512 26.549856 -6.3968163
-13.468295 26.191525 -2.8636312
-13.465458 26.776993 -6.2259974
-13.530832 27.261473 -5.3684163
-13.331961 27.398808 -4.6486616
-13.35411 27.193197 -3.8594065
-13.2441845 26.83332 -3.1381497
-12.9955 27.54062 -4.7354503
-12.772688 12.306934 -7.143571
-11.893642 12.960311 -13.07606
-11.947719 12.825468 -12.517461
-12.904158 12.66922 -7.9457603
-11.965553 13.572497 -13.350832
-12.207251 13.26015 -12.606999
-11.828188 13.794355 -10.2233305
-12.836245 13.556406 -4.8478656
-11.705799 14.404511 -13.802309
-11.929922 14.485326 -13.360825
-12.164703 14.372585 -12.528847
-12.833672 14.840927 -3.9869125
-11.590671 15.381338 -13.323664
-12.459715 15.85836 -11.280531
-12.384095 16.11923 -3.4318876
-11.945037 16.950521 -11.9935
-12.567297 16.625431 -11.197868
-12.267136 17.800688 -12.008248
-12.475375 17.393934 -2.9869952
-11.834454 18.62058 -12.749105
-12.376317 18.771921 -12.326355
-12.064764 18.706436 -2.436607
-12.345804 19.145357 -1.8585522
-11.975087 19.599491 -12.796563
-12.353756 19.474247 -12.474377
-12.425397 19.706861 -1.79229
-12.177784 20.020145 -1.2846739
-12.302015 20.01416 -12.355845
-11.997093 20.750998 -0.86649585
-12.016564 20.70311 -11.996035
-12.264684 20.822414 -11.339617
-12.180558 21.267735 -10.33132
-12.294042 21.14878 -8.502858
-11.954666 21.193525 -0.66639066
-11.977802 22.201132 -0.8633104
-12.415559 23.931984 -7.1803
-11.784156 24.118715 0.36530513
-12.057708 24.5462 -7.063606
-11.642841 24.446018 1.0596876
-11.845646 25.383322 -0.6643438
-11.688747 25.508951 0.53050745
-11.670239 25.024101 1.1089009
-12.686302 26.038996 -6.6916695
-12.3286495 26.190638 -6.4530554
-11.8394 26.09297 -1.8328494
-11.688853 26.055462 -0.3618967
-11.623547 26.107862 0.10924694
-12.442894 26.832487 -6.013132
-12.727945 27.436586 -5.2261953
-12.092538 27.263403 -3.5626202
-12.661707 27.588446 -4.4555335
-11.328173 12.3886 -12.3623495
-11.270732 13.010093 -13.7014
-11.474787 12.776667 -13.303956
-11.562163 12.703704 -11.612944
-10.888315 12.462902 -11.149817
-11.170405 13.140668 -8.282191
-11.744029 12.966742 -7.4709673
-11.408462 13.69068 -13.934882
-11.64795 13.21873 -13.606648
-11.587322 13.655206 -5.8908644
-10.891906 14.814491 -14.681198
-11.3077755 14.47457 -14.295338
-11.433717 15.089817 -3.75181
-10.812483 15.333335 -14.675524
-11.160858 15.32647 -14.286464
-11.520893 15.419196 -12.965255
-11.089796 15.972243 -3.3318167
-10.903557 15.829464 -14.254026
-10.996887 16.281782 -13.216635
-11.271157 18.855463 -12.9448395
-11.751417 18.318363 -12.589535
-11.579192 19.529062 -13.018808
-11.568089 19.607216 -1.2429692
-11.553994 20.242147 -12.767375
-11.444446 20.453697 -0.69880533
-11.227992 21.000729 -0.3063612
-11.365645 21.332502 -11.426635
-11.662129 21.769915 -0.53841984
-11.21832 21.309822 -0.2853619
-11.149286 22.184555 -10.1921
-11.331818 22.223965 -9.423217
-10.954932 22.934292 -9.341116
-10.942047 23.372057 -8.767379
-11.385548 23.650768 0.82355666
-11.207499 23.922169 1.290729
-10.932219 24.125196 1.6727941
-10.780527 23.820927 -8.603517
-11.405616 24.512444 1.4633048
-11.163051 24.60056 1.7184457
-11.837146 25.526012 -6.838074
-11.339419 25.263515 1.3683313
-11.10099 25.02232 1.708922
-11.244708 26.591026 -5.717732
-11.432744 26.350042 -1.9219236
-11.480824 26.567299 -0.35105136
-11.355277 26.443289 0.30496737
-11.026019 26.1335 1.0021272
-11.951412 26.90249 -5.8854303
-11.782784 27.499676 -4.0112042
-11.382087 27.07378 -2.997313
-11.292128 26.749538 -2.0264397
-11.034672 26.961508 -0.54117244
-11.001232 26.915861 0.10362722
-10.7811985 12.400516 -13.057453
-10.819579 12.317581 -12.4811735
-10.548539 12.312134 -11.906262
-9.636111 11.97936 -2.3913836
-9.668175 12.023763 -1.9063236
-10.76192 13.127497 -13.867345
-10.49442 12.712637 -13.389644
-10.862241 13.074474 -8.285564
-9.895711 13.214571 -7.190409
-9.807853 12.32706 -2.5367856
-9.924916 13.06186 -2.0778363
-10.25506 14.08891 -14.702519
-10.396668 13.681504 -14.367509
-9.981053 13.138787 -2.026876
-10.473223 14.648002 -14.84413
-9.564489 14.192577 -1.1175652
-10.457983 15.338115 -14.851016
[...]
POINT_DATA 4365
SCALARS features_00 float 1
LOOKUP_TABLE default
0.6677666 0.6445235 0.6439081 0.60776544 0.59962654 0.5887165 0.5708349 0.5589353 0.680023 0.6804007 0.63696706 0.67389464 0.68242145 0.68567884 0.63858724 0.64985657 0.6799904 0.68572986 0.5986986 0.5204376 0.43034852 0.56270754 0.6167059 0.5174436 0.43847078 0.5680846 0.54504454 0.5415219 0.50349474 0.46812767 0.4621394 0.48933572 0.5099918 0.5016571 0.4924008 0.4777317 0.4584554 0.4608033 0.44754648 0.46851602 0.88557225 0.87889564 0.8947402 0.87208796 0.66846305 0.67587805 0.6672102 0.6324816 0.5259547 0.66557574 0.67826974 0.5645019 0.5141769 0.43632054 0.61219823 0.40609458 0.37859988 0.5024978 0.41371444 0.41366524 0.46438882 0.4055336 0.30020547 0.40456173 0.43481427 0.3956982 0.35453263 0.44336015 0.43505916 0.38386923 0.31246695 0.40498367 0.4419596 0.38504893 0.37703586 0.36022472 0.35438105 0.70309335 0.67551184 0.6391135 0.76355326 0.7642844 0.7736263 0.79477775 0.64080656 0.83111537 0.8577397 0.840721 0.8047709 0.69011396 0.87127185 0.89210767 0.8599969 0.7319836 0.85377616 0.87244785 0.8491693 0.6273457 0.5858205 0.5610591 0.657387 0.6669483 0.655156 0.5760566 0.523926 0.46382466 0.62889224 0.41569138 0.38701025 0.3584839 0.14324935 0.3647856 0.33724016 0.19486237 0.24465579 0.38640147 0.34021926 0.22456934 0.19473234 0.33986214 0.20808852 0.29822746 0.31599236 0.19577883 0.32866448 0.16931096 0.24484828 0.6200577 0.09600748 0.7044823 0.67907804 0.58996516 0.4658606 0.7170627 0.3637273 0.7881077 0.55380064 0.46118945 0.7721555 0.8021856 0.6368791 0.5469296 0.79878247 0.8044237 0.7741518 0.62469673 0.59245586 0.5719169 0.6530088 0.524329 0.45060128 0.60670066 0.41881114 0.35469228 0.28907445 0.12987289 0.2879967 0.08241802 0.26640975 0.19991669 0.25732574 0.37462473 0.3457061 0.24351627 0.2238915 0.4528067 0.4218564 0.38943854 0.20984 0.45704567 0.4221783 0.38387507 0.30329797 -0.016627172 0.22449553 0.35281277 0.28597587 0.22117628 0.14628291 0.15804455 0.6581267 0.10712668 0.6686702 0.3010205 0.639477 0.37343022 0.6855951 0.64145565 0.45291063 0.6205425 0.68952763 0.65060836 0.5776464 0.4754484 0.60746825 0.50950146 0.7250192 0.7320144 0.5079167 0.6862514 0.7111037 0.3919575 0.3948441 0.62782466 0.5819555 0.50479746 0.25697353 0.45569435 0.102716744 0.10687539 0.102603205 0.18120986 0.30519032 0.13243937 0.38452756 0.41781926 0.134752 0.17843717 0.4381472 0.45098424 0.20261237 0.22265106 0.4645164 0.25956392 0.43539172 0.38217527 0.23061621 0.08428244 0.270996 0.20740145 0.5036291 0.59701777 0.3837114 0.67524195 0.43699723 0.6511587 0.6974997 0.44452584 0.3706446 0.280718 0.48359936 0.5593826 0.45463237 0.578473 0.34772265 0.5398788 0.698462 0.69510794 0.7110384 0.659126 0.52176845 -0.10424243 0.17977819 0.6872032 0.7063705 0.39252293 0.6344479 0.65021485 0.12815718 0.57981324 0.56109524 0.39253885 -0.016001046 0.49707854 0.3249789 0.34141046 0.34728467 0.40202403 0.2016817 0.43857038 0.27492422 0.30764234 0.22844195 0.2657797 0.30439782 -0.015889365 0.004212063 -0.052662883 -0.040619854 0.6069659 0.65772915 0.67722213 -0.036275055 0.6941883 0.7008988 0.27569103 0.7180799 0.7171407 0.24349168 0.305637 0.48629576 0.5816246 0.6842736 0.37428966 0.34725535 0.20821722 0.28701162 0.47769627 0.56578803 0.65344304 0.65201193 0.5742963 0.48312983 0.4794407 0.6559882 0.61691046 -0.15985194 -0.16905858 0.47127128 0.42870516 0.6357131 0.6370554 0.42171395 0.63422585 0.35022828 0.573902 -0.16113125 0.4435895 -0.14960763 0.21374115 0.24689254 0.26151776 0.26925772 -0.06840447 0.5129588 0.41266415 0.26877886 -0.08211446 -0.07351601 0.6387111 0.6712721 0.41856647 0.40122658 -0.07104511 -0.032582644 0.6847025 -0.030996531 0.7238569 0.081446044 0.7193258 0.20696723 0.23963967 0.15685302 0.16288714 0.3972106 0.4890734 0.6049833 0.65684557 0.13414933 0.45248437 0.48198014 0.47694594 0.522586 0.39203155 0.48710132 0.47825012 0.45367578 0.54713523 0.5155002 0.44230354 0.31717926 0.081075184 -0.21959871 -0.20333122 -0.22085933 -0.09939271 0.45623857 0.40766704 0.3286813 0.5921016 0.5400138 0.35858932 0.31930265 0.54467833 0.3220313 0.27822882 0.5106562 0.28733435 -0.2373282 0.15881267 0.21891956 -0.022743298 0.012719359 -0.022152612 0.23265374 0.10631343 0.3688597 0.4646289 0.40817088 0.39719325 -0.08169626 0.5665256 0.4515602 0.43428433 0.18654741 -0.042695314 -0.09061943 0.5696992 0.63976634 0.4788623 0.48384586 0.47755367 0.326858 -0.054796003 -0.037485808 0.7187567 0.49209133 0.50952286 0.49365413 0.44227225 0.080063745 0.0133718625 0.7323787 0.27259254 0.39840978 0.093739256 0.13116173 0.29605326 0.4623506 0.59450674 0.64066947 0.5634891 0.17735536 0.26806998 0.43969053 0.43926513 0.43235213 0.15780921 0.09584231 -0.22435027 0.20915687 0.39182013 0.38120136 0.31458235 0.34873354 0.265991 0.030578932 0.3411789 0.44459105 0.28398383 0.24333805 0.2650828 0.26622665 0.22253877 0.23868121 0.2552212 0.44821876 0.12190829 0.17369811 0.22400174 0.14083822 0.025074117 0.027151845 -0.010444025 0.014157794 0.32132402 0.14399089 0.3399201 0.41443887 0.49150378 0.43150324 0.46471316 -0.058172695 0.47319216 0.49667746 0.51448154 0.4344213 0.31351423 -0.008850772 0.4917413 0.5022852 0.46918875 0.3775407 0.3249665 0.18931271 0.30822957 0.041655898 0.12846841 0.25832427 0.37278998 0.50972986 0.51957357 0.6078162 0.59433895 0.40385854 0.5862777 0.62070465 0.61146504 0.9706049 0.8860885 0.8151213 0.750795 0.97435904 0.8996048 0.7695463 0.6662358 0.84369653 0.8001829 0.72899544 0.5858619 0.48878294 0.69050217 0.6073851 0.57337165 0.5470977 0.4682607 0.47765195 0.47701335 0.23028836 0.20074199 0.14056511 0.19091806 0.18666705 0.2369037 0.27314124 0.23693465 0.3607986 0.28681028 0.05879876 -0.1097546 0.21806249 0.15283844 0.29426464 0.16742586 0.4503135 0.13362874 0.022982374 0.1979773 0.23859808 0.4100494 0.51752263 0.5898956 0.30454296 0.30491722 0.52118593 0.60226226 0.32069165 0.28334188 0.22120515 0.29049444 0.47864795 0.53876567 0.36118007 0.19386476 0.35809696 0.2897138 -0.067768045 0.18275228 0.17885828 0.1375559 -0.0035250448 0.02220754 0.051626526 -0.005233541 0.25974715 0.010869674 0.31427637 0.412053 0.45677248 -0.11845094 -0.058445245 0.07322278 0.007847965 0.28615052 0.20883124 0.4382649 0.4487397 0.39644086 0.025378661 0.15107292 0.52509844 0.5284158 0.6116634 0.62698567 0.60936385 0.5700421 0.8981685 0.8911515 0.83618796 0.9007729 0.9307997 0.8738614 0.8356054 0.71241546 0.9476468 0.5029162 0.82980245 0.7457255 0.4768809 0.45681816 0.68072796 0.5915284 0.45577878 0.47119153 0.45232904 0.4548685 0.40811706 0.4046799 0.41506997 0.40261567 0.35408366 0.37588167 0.2584073 0.32371193 0.3277393 0.32826972 0.14678182 0.14206553 0.2540324 0.2026143 0.004499048 0.221879 0.24909061 0.17328371 0.13693398 0.11845194 0.17360774 0.18122745 0.28333113 0.25214702 0.2731849 0.17540547 0.09748362 0.05072227 0.119403705 0.33182162 0.51261866 0.6334934 0.6497841 0.31347302 0.630811 0.6397724 0.37803265 0.57363045 0.59592175 0.41105866 0.4268882 0.517346 0.55408543 0.416647 0.37577835 0.47589082 0.344598 0.07065143 0.024053507 0.07866821 0.56224465 0.5226022 0.46542 0.40226725 0.085242 0.60821396 0.67212415 0.10897438 0.055257402 0.29081088 0.2972384 -0.03803372 -0.013283595 0.0671234 0.3628265 0.35691917 0.41062078 0.39540133 0.26802412 0.4481709 0.5167501 0.6065811 0.6269852 0.60691833 0.54035234 0.85267746 0.8619096 0.8293662 0.8721794 0.8583877 0.7907964 0.8936101 0.52446604 0.8374926 0.46556574 0.7457709 0.6904125 0.44043702 0.43982685 0.5658021 0.39792722 0.3443413 0.3824109 0.2253774 0.16178626 0.21075444 0.2026614 -0.03222564 0.15802336 0.14701886 -0.13236001 0.0136439055 0.13119224 0.14552282 0.17764626 0.10836968 0.17896917 0.15800929 0.096749045 0.54074764 0.6147283 0.6143991 0.28265512 0.18423823 0.6334462 0.62771934 0.3375006 0.6385615 0.63020235 0.6253666 0.6099274 0.41879174 0.5481118 0.5695775 0.39625245 0.35181925 0.09219226 0.46984905 0.5091638 0.09821445 0.48411402 0.36124328 0.06580335 0.25275946 0.37274283 0.35683954 0.30249602 0.1350752 0.041990563 0.52833474 0.44833612 0.44354278 0.36516094 0.369277 0.55528665 0.63482094 0.6582182 0.46033832 0.4938108 0.6696704 0.6741683 0.47738224 0.5175378 0.5183306 0.49557236 0.58772594 0.6751032 0.6838739 0.5046361 0.4493168 -0.024352316 -0.13746104 0.61696446 0.7106687 0.72676873 -0.07591763 0.32897732 0.20776072 0.6700587 0.7349833 0.3356071 0.14581811 0.091462344 0.52667606 0.58558524 0.5415607 0.3959093 0.43755904 0.49070376 0.5735703 0.5049029 0.82018244 0.81982875 0.8238698 0.80210096 0.7103801 0.6095396 0.57612735 0.8237647 0.77188754 0.5174701 0.8140158 0.4869023 0.707656 0.45796776 0.40347654 0.32187045 0.43722463 0.2874362 0.48020262 0.215382 0.2603839 0.29494342 0.54278594 0.6312433 0.53951764 -0.08372765 0.35849082 -0.010320708 0.16152975 0.1534759 0.1113103 0.17239647 0.47747937 0.53637683 0.5877372 0.58776355 0.14100517 0.14923632 0.60420406 0.59731364 0.60688794 -0.42959157 0.5963813 0.17108332 0.53548634 0.200149 -0.32338935 -0.38996255 0.51083314 0.5025507 0.1653251 -0.30671686 0.07862836 0.45604005 0.5353549 0.5190998 -0.031737074 0.07558082 0.33119848 0.3155163 0.09507096 0.33047408 0.41583523 0.3979485 0.3917538 0.6392398 0.66459274 0.41077513 0.67767555 0.68635714 0.40740603 0.68756163 0.695771 0.4103225 -0.17675325 -0.08180358 -0.11656286 0.32620868 0.48235503 0.73003566 0.7284111 0.030597836 0.019398931 0.03145241 0.10020246 0.29363677 0.48027495 0.5664701 0.70226645 0.7708006 0.76972425 0.75189966 0.13913356 0.25601867 0.22157161 -0.0356626 0.18559098 0.70111287 0.7753739 0.7823294 0.39134875 0.49194396 0.38515806 0.50547063 0.52499795 0.5000595 0.7506687 0.701051 0.66783214 0.58034235 0.53660923 0.73769677 0.67153466 0.49772832 0.4787071 0.7434157 0.4303101 0.43820816 0.4297659 0.51422334 0.3493017 0.40949345 0.34433952 0.42065293 0.4812187 0.65209746 0.74253714 0.33719403 0.7244323 0.74379015 0.70820016 0.17637372 0.60782707 -0.029328287 0.43867326 0.1990746 0.21172097 0.3208087 0.46202856 0.5147113 0.54311466 0.3073213 0.2394501 0.36962873 0.48705342 0.5197838 0.5503266 0.5199648 0.53101504 0.5560486 0.027619146 -0.21752687 -0.24216253 0.5157927 -0.08253993 0.5094998 0.5137215 0.00733307 0.027290195 -0.29206696 -0.3037855 0.16141784 0.21957198 0.53664905 -0.16299248 -0.25952086 -0.25026262 -0.17490713 0.56084085 -0.011557519 -0.18045828 -0.09038585 0.21872297 0.12900652 0.116925 0.24625927 0.5559614 0.24881466 0.6297027 0.23243368 0.6748575 0.11985487 -0.313498 0.70773107 0.092584155 -0.03792219 -0.28461766 -0.27262884 -0.16156954 0.034532845 0.7265227 0.10355632 0.049619038 0.479522 0.77426887 0.7524492 0.21576694 0.13254942 0.34395108 0.46042812 0.6964148 0.7743125 0.80660075 0.78442657 0.4060868 0.32583928 0.12701617 0.3882327 0.40246814 0.4026547 0.4143699 0.5243638 0.49486327 0.46367836 0.39913082 0.60941446 0.5919256 0.67102194 0.5718975 0.5384441 0.6109384 0.52920246 0.4184 0.60666776 0.394517 0.34032524 0.28843296 0.6443558 0.70218754 0.36904997 0.17107512 0.3642347 0.515413 0.6247891 0.75429595 0.8167944 0.8567952 0.32670277 0.32912078 0.82884264 0.27526346 0.7664798 0.1993151 0.1265221 0.7226527 0.06515163 0.2300142 0.28816542 0.33281273 -0.39779174 0.34146306 0.41002202 0.42878208 0.41839445 0.45101947 0.4052084 -0.025768235 0.502578 -0.07805304 -0.13050885 0.5636194 -0.221865 -0.07049489 -0.07824987 0.5964837 -0.19162226 0.5681665 0.5725545 -0.23928568 -0.2059749 0.562515 -0.26948914 -0.15587778 -0.28590503 0.38082618 0.3208235 0.19490348 0.2403681 0.095411256 0.05605355 0.1425382 0.18593794 0.36172208 0.30052847 0.35397926 0.2939174 0.2782389 0.4511495 0.19083397 0.15940481 0.61027884 0.062751696 -0.13412768 0.6354221 0.010045268 0.0017476156 -0.15283035 -0.07450347 0.37224257 0.7208721 0.7113709 0.04329292 0.27017263 0.40105596 0.76128155 0.7427653 0.20342413 0.4393657 0.33963218 0.63842285 0.7667654 0.8370037 0.8424622 0.36534226 0.36684805 0.29924226 0.45540148 0.4690379 0.47065967 0.470786 0.5674782 0.47336686 0.46544558 0.6019571 0.55212367 0.52764916 0.64811146 0.6173527 0.26835296 0.2906735 0.36913186 0.34651443 0.082815155 0.289703 0.26899558 0.32081166 0.26985985 0.399588 0.49105865 0.4892481 0.5587707 0.6408286 0.7516159 0.81655705 0.35640556 0.36477476 0.8336561 0.33531606 0.820637 0.76654875 0.4539768 0.23681223 0.27606016 0.3040453 -0.29911143 0.2458662 0.040580377 0.3096292 0.35333988 0.27763245 0.29801726 0.10302779 0.49885935 -0.09508837 0.103740126 0.61913455 -0.18962498 0.63065386 0.20570806 0.22600064 -0.16003203 0.07022286 0.19744621 0.602262 0.61348736 0.15837777 -0.16782598 -0.18147743 0.24668637 0.41305578 0.51952857 0.5639671 0.31061566 0.16978882 0.05203825 -0.19679195 0.3570314 0.21295863 0.16488902 0.32472453 0.32484463 0.21180803 0.29289144 0.26636696 0.31953478 0.24664825 0.22276184 0.49913877 0.09704773 0.07618783 0.5489523 0.6135043 -0.0034911744 0.01146796 -0.0059015322 0.062327333 0.6557435 0.05972247 0.26071277 0.5257473 0.5748469 0.7627454 0.77714324 0.20688067 0.33420745 0.3760509 0.61745703 0.73651266 0.81154007 0.82062244 0.81628525 0.3834237 0.19357172 0.16606238 0.3260039 0.39866814 0.4325003 0.31227878 0.23418853 0.58445996 0.3475318 0.6581297 0.5621038 0.44778138 0.71082723 0.67863524 0.7556094 0.24613366 0.2723533 0.4659154 0.22871563 0.2605037 0.27104095 0.42755407 0.19099478 0.49031156 0.5461077 0.59594756 0.7104099 0.77963126 0.4745878 -0.002538871 -0.007799361 0.47414222 0.47835338 0.48753372 0.5876468 0.7018894 0.7732436 0.8006771 0.42184162 -0.16688952 0.2729597 0.3919055 0.7338019 0.7867509 -0.09081657 0.30196688 0.6998093 0.1654216 0.3295843 0.50197995 -0.09251571 0.22472294 -0.08753076 0.037212767 0.14302784 0.14894287 0.1973448 0.1447523 0.014283986 0.14685363 0.25097913 0.3464104 0.16613144 0.13436036 0.070092104 0.14237922 0.15884386 0.4958607 0.68750805 0.68129206 0.6718132 0.15937704 0.113976 0.098715924 0.17255527 -0.14853413 -0.0801788 0.004343275 0.15906154 0.61259156 0.6639937 0.6512297 0.64051926 0.6268585 0.10185786 0.17118979 0.16155757 0.24383487 -0.17658928 0.6488253 0.6140052 0.58384955 0.59249234 0.5428465 0.01417255 0.098182306 0.1264055 0.118290246 -0.49505788 -0.078895494 0.6085885 0.5026297 0.50355524 -0.08137244 0.1941033 -0.21872294 -0.1638988 0.21525753 0.0882048 0.45377225 0.54049814 0.5643555 0.32996354 0.16321555 0.14837548 0.13776137 0.2660762 -0.1724288 -0.14773586 -0.15346318 -0.16260809 -0.15931879 -0.16370721 -0.050273404 0.25964546 0.32135832 -0.1535314 0.18325585 0.23854494 -0.03778453 0.17111322 0.46163374 0.13919544 0.27131617 0.5426836 0.59146833 0.075847976 0.020646691 0.08245224 0.11674051 0.061811008 0.40530464 0.46906865 0.5223378 0.65628064 0.65929925 0.0757271 0.18269047 0.16794059 0.48046947 0.536127 0.6486454 0.71929026 0.75508785 0.27674955 0.2971261 0.26711237 0.6747973 0.7642603 0.27937475 0.4847966 0.24212828 0.5448163 0.59389174 0.6346774 0.68833196 0.5312263 0.4414801 0.7660681 0.76600003 0.6572525 0.81802523 0.82419 0.8168093 0.80370754 0.24287868 0.4833858 0.37397847 0.27608004 0.18066676 0.22913064 0.26429605 0.56580514 0.5953484 0.22934526 0.23508033 0.55862904 0.5564667 0.06383109 0.47888517 0.551611 0.6646849 0.51540244 0.0011330936 0.42496082 0.43714285 0.52785355 0.007953517 0.39550793 0.435489 0.537423 -0.071798965 0.10369528 -0.24085322 0.19321918 0.15508848 0.18886498 0.13331734 0.17638886 0.16008344 0.20348895 0.18487301 0.17768371 0.20773628 0.23875241 0.64355916 0.6300523 0.61363816 0.19972837 0.31780472 0.399128 0.68793154 0.6296042 0.5973779 0.16261145 -0.20269367 0.24607167 0.5184818 0.6514913 -0.5527352 -0.05316887 0.2517871 0.24035144 0.2092728 -0.11272825 0.6395555 0.6058456 -0.63792336 -0.016107127 0.4914717 0.501821 0.51857746 -0.081697956 -0.14371355 0.1605092 0.37889442 0.39385515 -0.115606695 -0.11281782 -0.11864813 0.10213649 0.3787681 0.29121685 0.19283715 -0.3823876 -0.1289335 -0.11767063 -0.09842555 0.25501722 -0.31962013 -0.28592128 0.06921397 -0.18446626 -0.0499845 0.056191795 0.28551298 0.21443048 0.2521599 0.3981526 0.32014775 0.12686855 0.14163375 0.38120666 0.42310166 0.375267 0.17736864 0.01422552 -0.13054143 0.15111592 0.14565367 0.4470554 0.29635406 0.18932423 0.13961947 0.1868633 0.030491985 0.20383118 0.24251446 0.043908387 0.28938988 0.19597325 0.2556839 0.45296234 0.4067345 0.5710048 0.5622833 0.42136693 0.67768186 0.72084725 0.81935 0.757004 0.8605723 0.86132646 0.83398783 0.8470782 0.8282393 0.86500895 0.8583734 0.87006235 0.40151763 0.28163454 0.62254524 0.60312605 0.42643422 0.3096125 0.21923313 0.59609044 0.11890527 0.5711092 0.56604373 0.033687584 0.48940578 0.04468042 0.14594641 0.01585304 0.12368095 -0.0046508163 -0.01484333 -0.045820102 0.22365949 0.2068399 0.20577078 0.10718818 0.14862591 0.21665972 0.20117614 0.108525835 0.17720298 0.22003931 0.2054846 0.58850837 0.5700114 0.5519247 0.45851022 0.16586259 0.35767847 0.6397651 0.4126117 0.6416194 -0.06077665 -0.058606163 0.23057155 0.25768608 0.23240301 0.41308373 0.5720693 -0.059326977 -0.13654944 0.25825852 0.42740792 0.060046136 0.32688686 0.01222752 0.26400578 0.27199313 0.28820363 -0.5101927 -0.33766714 -0.14234123 -0.1887957 -0.027598344 0.24022862 0.22201 -0.32249266 -0.4835181 -0.31098428 -0.22164854 -0.23324864 0.17254364 0.07441892 -0.14686373 0.11957033 0.0783194 0.49789128 0.38473496 -0.12166359 -0.27091402 0.12468796 0.5147753 0.45255515 0.22495021 0.5660175 0.48912087 -0.07841554 -0.04712832 0.0864401 0.2709791 0.25684077 0.30103573 0.553105 0.5500896 0.16002226 0.0964385 0.33514988 0.25668323 0.21141997 0.3405825 0.35705683 0.32120597 0.51112294 0.3000875 0.69889987 0.7854812 0.7146249 0.89699364 0.8341453 0.9137967 0.9205708 0.9163271 0.88349485 0.8555661 0.8965114 0.8889065 0.6274518 0.61148137 0.5471536 0.387254 0.31253803 0.62103236 0.61350733 0.5577514 0.30208725 0.55273664 0.081028745 0.027656378 -0.005308494 0.05244023 -0.026627436 -0.06959992 -0.052666046 0.01680382 -0.023482066 0.25726318 0.055266626 -0.031037837 -0.33637232 -0.092435226 -0.05038645 0.0016433243 -0.024643198 0.24322817 0.2876414 0.11578577 0.037692428 0.24156922 0.059414666 0.093445756 0.5227175 0.53184265 0.20710424 0.17489515 0.53681684 0.5509012 0.26770443 0.3185718 0.56782985 0.3393409 0.5793284 -0.024375461 -0.048021697 0.044540256 0.1662633 -0.22724314 0.28266183 0.5282085 -0.0562783 -0.032645807 -0.023251321 0.14466588 0.35794675 0.13551731 0.016539186 -0.005987063 0.27015433 0.29580393 0.060702853 0.1451612 -0.05538837 0.27907094 0.26461428 0.20629418 -0.33141816 -0.26228702 -0.32626945 -0.08159841 -0.0021727793 0.25703022 0.03001269 -0.39245057 0.19023967 0.48223573 0.2852559 -0.38060278 0.14976043 0.18437213 0.50504667 0.054349087 0.19303495 0.58361727 -0.038676128 -0.051280633 0.27299964 0.23449734 0.62007797 0.5846663 0.009934008 0.0089049935 0.11649978 0.14226213 0.10408823 0.27749765 0.32528156 0.61940426 0.61401004 0.5760477 0.0024844408 0.049583904 0.122093216 0.38361996 0.2734332 0.20580271 0.6138265 0.563886 0.39364612 0.40737677 0.26826227 0.36009026 0.38599864 0.38834354 0.35257173 0.3446978 0.04800099 0.010785967 0.37357664 0.23646237 0.3313404 0.30984104 0.78716916 0.70941263 0.61556906 0.5722464 0.42591122 0.82469237 0.79207385 0.69455576 0.70523095 0.8884721 0.8640287 0.8432442 0.8495649 0.8071859 0.9451809 0.94008195 0.90471494 0.6030247 0.48850968 0.5324882 0.23323658 0.12440173 0.3860548 -0.020659551 -0.14032087 -0.2122851 -0.00074172765 0.23826662 0.14841643 0.12470317 0.39012492 0.39192772 -0.022123292 -0.08722523 -0.04501705 0.009107444 0.05258178 0.09247526 0.21926934 0.14218001 0.3992707 0.02676484 0.4085283 0.4368716 0.4956711 0.2330682 0.5052309 -0.02695318 0.011520438 0.023403086 -0.0143040195 0.02195485 0.01632167 0.022981007 0.45017356 -0.033485256 -0.030247113 0.00879401 -0.0045635253 0.3740204 0.097472064 0.21531835 0.23757434 0.23772344 -0.010893509 -0.042023532 0.39619935 0.18661056 0.18982404 0.07101141 0.36325893 -0.3709941 0.305995 0.54358894 0.24289422 -0.13499543 0.26341528 0.29729703 0.19955266 0.57785666 -0.062139004 0.26683486 0.2981133 0.19262162 0.655863 0.006542787 0.2962917 0.32011712 0.3320899 0.4597423 0.112119004 0.2844172 0.6828210