# vtk DataFile Version 2.0
Really cool data
ASCII
DATASET POLYDATA
POINTS 3493 float
107.36805 36.09423 41.075
107.34447 36.014565 41.50531
107.391235 35.9854 41.96513
107.32291 36.444534 40.955284
107.213715 36.451267 41.51121
107.325195 36.645557 42.184803
107.34593 37.061646 40.95377
107.288956 37.23209 41.576828
107.37882 37.087452 42.231174
107.79691 35.881073 40.77317
107.606 35.700752 41.413086
107.646454 35.845787 42.23495
107.75108 36.090122 42.863007
107.942406 36.69013 40.317642
107.63089 36.467373 40.584564
107.4903 36.58475 42.545326
107.86859 36.627304 43.12906
108.35264 36.717926 43.861774
108.039925 37.338978 40.341312
107.64601 37.387154 40.703396
107.45624 37.602764 41.210518
107.58784 37.54117 42.410805
107.97328 37.417683 43.22765
108.358574 37.466526 43.834614
108.2277 37.884808 40.340748
108.05113 38.261436 40.803566
107.88328 38.34927 41.38768
107.90476 38.199844 42.282185
108.08012 38.007763 43.02444
108.27681 38.775 41.0189
108.174385 38.76194 41.736248
108.20907 38.717518 42.055614
109.3902 31.042982 42.710815
109.312645 30.782293 43.77386
109.35937 30.611788 44.582066
109.40148 31.564054 41.78347
109.293495 31.572815 42.4694
109.07922 31.589794 43.562595
109.10496 31.46347 44.43979
109.23397 31.558645 45.17998
109.35324 32.249004 41.89241
109.14838 32.07355 42.599155
109.13715 32.462692 43.313698
109.29168 32.343082 45.297096
109.22587 33.94972 42.60472
109.28894 33.413662 43.51873
109.30226 33.02421 44.31957
108.99259 35.042706 41.446217
108.92655 34.70468 42.509777
109.20012 34.146366 43.114944
108.1646 35.993332 40.37442
108.26684 35.66608 40.638733
108.71685 35.54988 43.82957
108.58574 36.72217 44.159447
108.50709 37.575848 40.136013
108.82559 37.521736 44.274117
109.11267 37.413147 44.627045
108.68965 38.469227 40.357063
108.37178 38.399784 40.51669
108.43992 38.6104 42.737083
108.54597 38.506634 43.07043
108.85449 38.07534 43.95282
108.75358 38.951893 40.774216
108.68466 39.114975 41.37306
108.747444 38.983166 42.211285
110.041626 30.215302 41.77639
110.09995 29.937828 42.556248
110.04677 29.913424 43.504124
109.84418 29.9803 44.523186
110.106575 29.916777 45.191814
110.30821 29.93928 46.217857
110.10268 30.8937 40.9553
109.80635 30.693401 41.567463
109.5314 30.720926 42.674255
109.64714 30.37536 43.209015
109.511604 30.509672 44.617756
109.65919 30.621351 45.29035
110.289215 30.604206 46.566418
110.43819 30.677948 47.341488
109.895 31.565975 40.862576
109.58625 31.39321 41.441578
109.472534 31.847572 45.67041
109.6122 31.397554 45.889835
110.455 31.301336 47.100246
109.88124 32.828476 41.081467
109.55053 32.187492 41.377697
109.486626 32.49083 45.621044
109.78114 32.296154 45.99325
110.394 33.470154 40.11392
110.29985 33.415417 40.365067
109.864136 33.266262 45.404
110.42983 34.643173 39.980713
109.46492 34.90328 41.44111
109.51871 34.693264 44.30779
109.29449 35.826126 44.42854
109.64289 35.767002 44.70248
109.47209 37.51425 40.08132
109.31874 38.39861 40.17554
109.61151 38.238365 44.318077
109.3719 39.128773 40.813473
109.50949 39.309273 41.409763
109.39528 39.00622 42.516792
110.00693 38.7956 43.82563
111.16799 29.281614 42.97856
110.91557 29.080797 43.364548
110.88238 28.84671 44.545895
110.933914 28.698906 45.379684
110.816635 29.099697 46.357777
111.14016 29.099384 47.46074
110.787285 29.620586 41.6881
110.4185 29.62258 42.302372
110.720024 29.479939 46.55636
110.76411 29.660744 47.44273
110.908394 29.801264 48.1334
111.33499 29.926855 53.52623
111.388016 29.906553 54.0486
110.641075 30.659096 40.67209
110.62115 30.442001 47.629047
110.62638 30.335722 47.90069
111.33864 30.204144 52.796024
111.18764 30.567398 53.578136
111.3312 30.594007 54.287636
110.63934 31.64484 40.15826
110.63994 31.06759 47.54496
111.162224 31.147373 48.459145
111.27533 31.127998 48.826717
111.258 31.507393 53.49476
110.74188 32.506683 39.870743
110.333595 32.391613 46.423203
111.11406 32.08727 47.7798
111.2188 34.11874 35.952045
111.06224 34.20908 36.736244
111.00706 33.798866 38.527775
110.9067 33.673008 39.379017
111.262764 35.004486 35.23345
110.9747 34.815784 35.76528
110.852844 34.702164 36.440037
110.89469 34.42557 37.423065
110.72914 34.55885 38.50046
110.65108 34.36457 39.493347
111.285065 35.480442 35.316093
111.005135 35.491165 35.695084
110.78156 35.48302 36.372063
110.93317 35.64339 37.388374
110.76884 35.091408 45.4241
111.06694 35.089954 45.884594
111.17119 35.900574 35.7745
111.158615 36.10229 36.586823
111.04177 35.95205 37.256454
110.764854 36.49352 45.55682
110.58503 37.243584 39.873924
110.094635 38.006676 40.21535
111.16176 38.676876 44.86245
110.543365 38.999302 40.972477
110.10419 39.113102 41.39583
110.47337 39.0755 42.456985
110.46316 39.18844 43.144226
111.02206 38.681465 44.23089
111.498245 42.055347 43.818645
112.36021 25.116022 28.727402
112.37822 25.047714 29.21211
112.44959 25.637552 28.186625
112.34187 25.539068 28.711632
112.35669 25.501812 29.308308
112.43886 26.347364 28.71002
112.366745 26.076044 29.10663
112.21817 28.039389 42.66524
112.12164 27.925827 43.29887
112.08086 27.797167 44.133583
111.72567 28.025131 45.34064
111.759415 28.888866 41.74615
112.103714 28.334528 42.244804
111.32727 28.443819 45.666985
111.64596 28.753572 47.638863
111.74955 28.973341 48.58501
112.10899 29.222202 50.472607
112.00062 29.01062 52.903988
112.05071 28.948603 53.484432
112.02773 29.251572 54.302013
112.230286 29.301249 54.813046
111.59734 29.855082 40.873287
111.95203 29.287273 51.636086
111.8229 29.436602 52.673374
111.48246 29.653242 53.48893
111.680954 29.698185 54.30228
112.09102 29.810581 55.04831
111.59317 30.53991 40.263397
111.415695 30.354187 40.733276
111.57332 30.199099 49.308945
111.72086 30.38842 50.84518
111.62513 30.523855 51.237278
111.48086 30.462017 54.597195
111.86482 30.585897 55.14995
111.6667 32.085148 39.16741
111.68324 31.842016 39.512856
111.47459 31.669542 48.719505
111.56042 31.183632 49.251194
111.98405 31.41763 50.910637
111.84038 31.802753 51.619377
111.55007 31.414383 54.321712
111.88301 31.13628 55.15727
111.93213 32.97275 36.982037
111.38981 32.727345 38.794113
111.36732 32.566715 39.295444
111.70351 32.001095 48.56457
112.404 31.91612 49.630886
112.015465 32.099014 51.037212
111.8776 32.45601 51.505947
111.62052 32.424355 52.465286
111.72111 32.48473 54.319847
112.37751 32.03344 55.760082
111.856125 34.05498 35.12587
111.68055 33.816715 35.780903
111.55487 33.58053 36.612442
112.04082 33.804237 47.593784
112.095345 33.193645 47.980534
112.1652 32.967007 51.0864
112.014824 33.3803 51.671284
111.70211 33.195652 53.55978
111.98448 33.23029 54.39902
112.176216 33.738136 54.915657
111.836754 34.851692 34.75549
111.82346 34.40749 47.098835
112.25125 33.897373 51.55722
112.03921 33.94348 52.249973
112.07946 34.325516 53.413166
112.16352 34.03659 54.5007
112.38472 33.94272 55.25044
111.6255 35.45483 34.97667
111.86195 34.96578 47.194702
112.33806 35.00969 53.07637
111.77554 35.922688 35.074234
111.55527 36.245525 35.602158
111.59328 36.49938 36.36341
111.822266 36.11587 47.027805
111.73167 36.612087 36.014034
111.95471 36.846275 36.5404
112.00355 37.062225 37.992813
111.8426 37.163357 38.24071
111.42451 37.454884 39.983612
111.68992 37.5884 46.355507
111.92011 38.17193 48.196194
111.641785 37.896847 40.40825
111.78367 38.505337 46.27524
111.61933 38.831795 47.699543
111.788994 38.62895 47.970875
112.03724 38.312927 49.18868
112.27009 38.733227 50.194298
111.54575 39.199837 47.047012
111.560394 39.554455 48.501503
111.64992 39.566883 49.24304
112.09557 39.492474 50.140594
111.967255 39.867207 42.407726
112.204956 40.635746 45.27569
111.83713 40.437122 46.88272
111.63133 40.271034 47.28068
111.627106 40.28518 48.490604
111.81639 40.501682 49.436367
112.048836 40.361053 49.983486
111.784485 41.952812 42.88267
111.72374 41.443146 43.514256
111.92955 41.65673 45.030655
111.93121 41.10281 48.812668
112.056946 41.22146 49.320744
112.22561 41.068417 49.90528
112.01298 42.63342 42.375908
111.63729 42.47847 43.543934
111.66458 42.598347 44.279938
111.85209 42.518375 44.897167
112.301636 43.529877 41.980473
111.80281 43.662373 42.93496
111.688805 43.31453 43.46501
111.786026 43.544743 44.38053
112.12875 43.877754 44.8068
112.031296 44.295776 42.849224
111.82577 44.31524 43.55028
111.92654 44.322933 44.30792
112.17747 44.186676 44.811882
112.32366 45.053577 43.003628
112.13616 44.929527 43.644676
112.15607 44.762764 44.337124
113.203094 24.20228 28.051208
112.9781 24.085966 28.654615
113.06703 23.823313 29.37962
113.20938 23.77678 30.29727
113.273125 24.179333 36.6096
113.29054 24.19105 37.20689
113.22892 25.029654 27.281525
112.89713 24.800064 27.778297
112.60248 24.644966 28.61096
112.67048 24.634932 29.531048
112.874916 24.741684 30.094059
113.21898 24.746346 30.667078
113.19986 24.839619 35.90934
113.06434 24.60026 36.551838
113.04664 24.750765 37.17288
113.2325 25.003887 37.813538
113.20095 25.465857 27.251211
112.613205 25.435059 27.968801
112.49642 25.264051 28.230968
112.48288 25.523537 29.555285
112.65889 25.531263 29.944729
113.13963 25.529572 35.95997
112.90158 25.422031 36.562298
112.85978 25.531433 37.011456
113.277725 25.328232 37.866047
113.40269 26.089724 45.49151
113.20129 26.05692 27.23883
112.81705 26.25189 27.801699
112.579346 26.402693 28.639519
112.493645 26.264288 29.209587
113.1064 26.454954 30.195967
113.19008 26.282593 36.143547
113.04806 26.129179 36.61847
113.18342 26.134766 37.433487
112.90789 27.26717 43.101
113.11276 26.872849 43.62416
112.85994 26.811523 44.469425
112.55394 27.231718 45.257656
113.10745 27.17787 27.841963
112.82775 27.312044 28.597523
112.72215 26.970583 29.499733
113.17733 27.442858 29.999058
113.40848 27.017298 36.03462
113.33367 27.015259 36.4919
113.366806 26.927036 37.059044
112.68085 27.99481 41.962593
112.36309 27.984468 42.613716
112.294685 27.754055 46.0732
113.27367 27.742718 47.592426
113.02062 28.264025 48.80638
112.80087 28.132849 52.734776
113.0307 28.020481 53.357967
113.2163 28.325588 27.933352
113.05331 28.077847 28.588877
113.25273 28.312866 29.389427
112.85973 28.78113 41.155083
[...]
POINT_DATA 3493
SCALARS features_00 float 1
LOOKUP_TABLE default
0.7446783 0.7224151 0.684591 0.77017444 0.7578422 0.714738 0.7942759 0.7922462 0.72302705 0.6979637 0.6694903 0.6194062 0.5573545 0.75451684 0.7648146 0.6597996 0.56124806 0.47162724 0.7609123 0.79065365 0.8048895 0.7015091 0.5802591 0.5166182 0.7467729 0.7704629 0.7762668 0.7085736 0.6042727 0.7638805 0.7446786 0.7174245 0.37701347 0.38000983 0.3729023 0.36085802 0.35513073 0.36761963 0.4068916 0.3699276 0.296451 0.3087414 0.28934336 0.35054815 0.13337004 0.211678 0.3250446 0.3361672 0.30746967 0.19024931 0.6755602 0.6143594 0.35586023 0.43886405 0.70929 0.46621886 0.41976595 0.72004336 0.7488353 0.6179414 0.57323074 0.49482802 0.7437449 0.74177647 0.6664001 0.39067692 0.3545913 0.33257437 0.3225915 0.29151466 0.2683146 0.3763475 0.39684513 0.38153088 0.36939463 0.36249793 0.3323744 0.26483184 0.26265144 0.33661008 0.36802396 0.3164058 0.2987094 0.23722097 0.20521286 0.30542034 0.308362 0.26787144 0.0703149 0.07572876 0.23365097 -0.06459009 0.16335076 0.15616623 0.28129366 0.20213929 0.5830511 0.64561975 0.4226704 0.71530885 0.705642 0.5887621 0.40325162 0.2277179 0.22410825 0.22801322 0.22403193 0.2515153 0.29937348 0.3175459 0.32423657 0.26794213 0.29785702 0.31383967 0.45795077 0.48197794 0.33179235 0.27392152 0.279448 0.41838503 0.46457934 0.49571556 0.2500323 0.24631187 0.21936332 0.19822326 0.45719498 0.17119303 0.19841684 0.16369256 0.53939325 0.4986413 0.1050887 0.05563651 0.55705833 0.57988876 0.57388574 0.42926162 0.14100945 -0.013642159 0.5470675 0.56195235 0.575508 0.530646 0.0116331335 0.02440612 0.538681 0.50886804 0.49910223 0.019542137 0.24779141 0.48847267 0.12709805 0.5386504 0.6453499 0.47709197 0.38450614 0.26738718 0.42951953 0.61533016 0.60691524 0.59205097 0.58456725 0.56445205 0.5254197 0.5310281 0.14323562 0.13926837 0.1440006 0.1832551 0.20522004 0.15948194 0.20726961 0.2609712 0.25237176 0.22982018 0.37573433 0.418313 0.4693836 0.4823034 0.22565505 0.33729753 0.38082665 0.44962654 0.48331654 0.495031 0.1564214 0.2412357 0.21886939 0.16883197 0.25465697 0.5016962 0.5068884 0.08985673 0.10015786 0.13187914 0.12258922 0.018173479 0.17789063 0.4860445 0.5082374 0.2853443 0.09892793 0.11696222 0.087976374 -0.08370489 0.07734552 0.17892304 0.29499415 0.41853786 0.46699476 0.51687264 0.49564037 0.42265636 -0.018976755 0.012578651 0.17955258 0.27223825 0.37787554 0.3806311 0.39204094 0.5077263 -0.015739046 0.3231381 0.36238313 0.392663 0.37716696 0.4096853 0.5189206 -0.0070567355 0.42545253 0.49815917 0.50642294 0.45815992 -0.0055240355 0.4588002 0.377549 0.11440323 0.040700324 0.049229406 -0.03700196 0.37163717 0.169672 0.058361657 0.33790457 0.37325573 0.588493 0.61058897 0.26057187 0.52259755 0.6296675 0.6462577 -0.094611 0.0387446 0.28743428 0.40045765 0.5759709 0.6665299 0.68268985 0.37381747 0.3453843 0.3320074 0.5965976 0.6114993 0.6337807 0.38247848 0.45801127 0.46456295 0.427867 0.37016672 0.47847378 0.5062963 0.5178512 0.46433955 0.4715153 0.5353 0.52495027 0.45937717 0.46352583 0.51874924 0.502089 0.667107 0.6854658 0.6986337 0.67550075 0.60509855 0.58268154 0.64166474 0.65810233 0.6545242 0.63850224 0.6047609 0.5502238 0.6203486 0.63039744 0.60603034 0.52968234 0.6229347 0.6170092 0.62126356 0.5480869 0.52025557 0.5699876 0.60680854 0.59558105 0.5051992 0.3727032 0.58249605 0.552837 0.52212214 0.5105333 0.39277023 0.47934344 0.5288418 0.5043326 0.13770372 0.16536444 0.17233416 0.1663719 0.47091943 0.45615998 0.43051863 0.27505153 0.3754192 0.39997262 0.4202031 0.12143758 0.13710102 0.16521502 0.0018576607 0.012719836 0.29675922 0.3287844 0.3080546 0.37716416 0.23046601 0.11688775 0.055230614 0.1898973 0.26729944 0.29223543 0.37952855 0.436781 0.46312302 0.4814234 0.45755488 0.12778713 0.12797502 0.4873755 0.6047611 0.5603905 0.50868493 0.36731008 0.29752904 0.14760932 -0.121881485 0.47297382 0.7560227 0.6890843 0.6251153 0.49380356 0.4321574 0.32687545 0.25918978 -0.080419265 0.45347685 0.7990537 0.7710415 0.70428455 0.53694445 0.44613433 0.35848838 0.30561203 0.18390246 0.45340073 0.46756518 0.8168359 0.7765168 0.69957864 0.6180005 0.4294865 0.40316287 0.21937172 0.4136328 0.3915062 0.013176259 0.22165653 0.44201577 0.46041209 0.7570561 0.7264586 0.66863304 0.24204585 0.2105459 0.4426051 -0.018841244 0.4236518 0.45074242 0.22703606 0.28003487 0.40901744 0.43674046 0.4307891 0.4264425 0.44181937 0.43386567 0.46688107 0.48115265 0.46529788 0.3657056 0.42722136 0.21494593 0.6046702 0.59485805 0.0003964007 0.6067538 0.6064081 0.63147974 0.6139023 0.012957275 0.6614392 0.6499133 0.15767014 0.43055755 0.5352305 0.57956016 0.58453393 0.54152334 0.56140125 0.14579521 0.28458303 0.24589837 0.5293934 0.54413193 0.5261504 0.6056989 0.6122617 0.3125661 0.62741625 0.62759894 0.3348925 0.39815003 0.40499783 0.29651725 0.33983386 0.40877813 0.46671593 0.3945027 0.33063725 0.37835276 0.41754323 0.6544504 0.71609974 0.6948193 0.6624168 0.44156548 0.62852913 0.681249 0.70783657 0.6779343 0.63499284 0.4603514 0.5211977 0.56064796 0.50905144 0.42657804 0.51540315 0.62336075 0.6394688 0.52016824 0.5704865 0.5304023 0.4236278 0.24103653 0.4681984 0.5022464 0.5129895 0.60892785 0.43775117 0.54188526 0.39250344 0.23190445 0.3596296 0.48867702 0.4945423 0.46438456 0.54428804 0.15157545 0.43232405 0.35758907 0.4408173 0.22901693 0.19491751 0.24152583 0.16336697 0.35323685 0.20380113 0.25826877 0.3094037 0.31691077 0.29914102 0.12583971 -0.057829395 0.02942964 0.09306961 0.15061948 0.22103025 0.26944053 0.32251492 0.31992137 0.32617286 0.010330178 -0.027548734 0.17527044 0.21874537 0.26890713 0.19697344 -0.029843464 0.40158316 0.5595367 0.46486267 0.07540365 -0.022170799 -0.061207984 -0.06413789 0.15283637 -0.2121955 -0.0119517 0.4304794 0.4317608 0.6626665 0.60841227 0.040024523 -0.06510813 -0.06311382 -0.082461566 -0.24050298 -0.12594968 0.44121024 0.7372398 0.69062465 0.054436468 -0.087312095 -0.07516581 -0.07022113 -0.020280745 0.4491819 0.447006 0.81851393 0.25355977 -0.07686069 0.12342581 0.016644508 -0.044397146 0.009687092 0.45642447 0.46478593 0.83468336 0.8068038 0.4460708 0.3286194 0.28963912 -0.07818267 -0.0191333 0.47378322 0.77364296 0.727814 0.6651801 0.3051506 0.32340723 0.46941143 0.48061723 0.26821455 0.24244423 0.37947172 0.4227196 0.45254242 0.4580493 0.20445189 0.19952464 0.18767552 0.4346195 0.46323073 0.48414588 0.46930572 0.44513053 0.5886356 0.5987086 0.4454701 0.4636082 0.47260284 0.46655464 -0.024418298 -0.019285973 0.58799726 -0.0611725 0.37272394 -0.19210973 0.38753462 0.39015275 0.43710047 -0.0014769062 0.5198499 0.41814995 0.4719621 0.49456298 0.47889954 0.53889847 0.51345176 -0.11568661 0.4144945 0.44726372 0.49239874 0.49120235 0.56790566 0.5968399 0.5921893 0.19861612 0.16766475 -0.0720842 0.5142389 0.5813136 0.61520684 0.6237662 0.6024121 0.5465074 0.115846135 0.5490393 0.59303266 0.59543014 0.57963526 0.19349936 0.30433375 0.2781198 0.18249494 0.38196442 0.26844603 0.2199445 0.26570666 0.36668453 0.36535254 0.42882407 0.37321916 0.4637131 0.48514035 0.5606548 0.661559 0.57239664 0.64920306 0.72525394 0.32323363 0.42699426 0.4490013 0.45685267 0.5668721 0.60723305 0.6875386 0.67752016 0.6201303 0.35388982 0.36329105 0.39610648 0.44789702 0.45709306 0.57802504 0.55972064 0.41531298 0.28047127 0.3630489 0.30643728 0.49184453 0.5170691 0.50622666 0.5725341 0.08593068 0.14040989 0.4683171 0.5034186 0.4564306 0.5154911 0.27695838 0.074806914 0.10534974 0.1845475 0.4264101 0.4346587 0.03379774 -0.0026746579 -0.37295625 -0.057274707 0.072579764 0.24095815 0.0718331 0.122209966 0.40847453 -0.06995687 -0.03868799 0.2998845 -0.064839564 -0.07641856 0.15846276 0.51058793 0.35746533 -0.10930797 -0.17287384 -0.1271984 0.07915546 0.61906993 -0.10156614 0.023863316 -0.2677041 0.38868177 0.77205396 -0.06519439 -0.22185737 -0.21138634 0.4184995 0.41914088 0.8521235 -0.13627504 0.42821354 0.8639551 0.4635443 0.8316691 0.76438606 0.7214703 -0.02527897 0.47881258 0.18354133 0.21032232 0.4534999 0.08356104 0.40471214 0.042707287 -0.0016413927 -0.055764556 0.4199105 0.42533538 0.4265294 0.4173438 0.23301029 0.17552105 -0.05360821 0.32859772 0.33842418 0.27471194 0.26710182 0.6109624 0.3825302 0.31845436 -0.08642514 -0.2233747 0.4728758 0.40781122 0.39695442 0.37218106 0.3271479 -0.46570635 0.35202956 0.2380282 0.41942772 0.40117058 0.3525353 -0.07387013 0.14664415 0.29385933 0.40681097 0.40662003 0.48510063 0.031845342 -0.0176756 0.368823 0.41604567 0.5240145 0.021864265 0.112638846 0.15040816 0.37656003 0.44044232 0.5243106 0.54455805 0.43113518 0.13969453 -0.011754584 0.15423581 0.3987312 0.11824253 0.12593403 0.19956544 0.32619447 0.3973157 0.41409478 0.48708606 0.5129843 0.67259634 0.52985847 0.5760355 0.6928627 0.76755714 0.71962595 0.60894156 0.72650623 0.7746441 0.7386384 0.33201927 0.34789315 0.310947 0.3675097 0.40913147 0.43358004 0.42967314 0.26562575 0.16178922 0.16180834 0.33629382 0.4394082 0.4508918 0.46178186 0.43714237 0.4893583 0.6374111 0.47820413 0.46546495 0.09897928 0.18685348 0.15662304 0.4385028 0.4184476 0.5166006 0.5061655 0.21516393 -0.08708281 0.2798785 0.29675874 0.26201943 0.48552915 0.4516307 0.4368255 0.20681526 0.18893903 0.28627077 0.43317387 0.44847047 -0.066046365 -0.1993015 -0.13419017 -0.04761157 0.09092488 0.32005084 0.23198356 0.1991309 0.20791884 -0.05575063 0.13736227 0.062493328 0.1350327 0.2770986 0.45019928 0.1657168 -0.107161865 0.46270263 0.011399634 0.49130008 0.2949729 0.5357863 -0.023112657 0.69279444 0.6637986 -0.3193046 0.33916923 0.20781177 0.31135356 0.85295856 0.86514163 0.22104888 0.8011203 0.09631294 0.36687607 -0.15629306 0.27196026 0.31554723 0.3051824 0.20086746 0.16534473 0.055816874 0.161034 0.28058836 0.29664013 0.2763953 0.38027462 0.32936925 0.4013853 0.4356736 -0.3828079 0.39551216 0.4611034 0.4195999 0.4643681 0.42989057 0.500773 0.45096523 0.41700304 0.39381558 0.44531804 0.48153436 0.39800966 0.35396576 0.3104173 0.23405766 0.3683691 0.46434966 0.29856735 0.29867804 0.1695557 0.24090677 0.3751412 0.3578487 0.28631613 0.27039945 0.31413618 -0.09961501 0.08982073 0.21000949 0.31857204 0.12172955 0.05694084 0.2905848 0.44706023 0.5309866 0.40672347 0.5092894 0.55679977 0.5770176 0.45733094 0.59223914 0.7160389 0.74674106 0.6381495 0.3960926 0.4293098 0.42901534 0.377865 0.24576117 0.4045955 0.39524838 0.31268898 0.31411648 0.35014576 0.40110677 0.5290313 0.014991488 0.19038954 0.46476305 0.51252556 0.5245279 0.31772763 0.06682643 -0.043529432 0.087451264 0.21815786 0.43690938 0.4752511 -0.35185358 0.21213907 0.07411018 -0.20092337 0.3612046 0.33516896 0.3151238 0.28143 0.5592922 0.6099956 0.13553202 0.031422753 -0.0654934 0.25065818 0.27991092 0.24478057 0.15983553 0.22570601 0.54141057 0.5671001 0.120248035 -0.18487127 0.48945415 0.5340241 0.11096336 0.52226704 -0.035823554 0.010672506 0.3996042 0.52518386 0.5792173 -0.04055753 0.5324901 -0.06438808 0.04339973 0.21401396 0.43254644 0.28088734 0.4139989 0.3582374 0.22814903 0.43675274 0.38618758 0.25790897 -0.010862324 -0.09944009 0.35984206 0.4139503 0.12337428 -0.1596921 0.07136832 0.13821524 0.278054 0.344732 0.31952918 0.054177523 0.079969436 0.15022516 0.42905617 0.34561515 0.21091741 0.4891672 0.42354915 0.4927551 0.5247553 0.48980498 0.5219256 0.47105882 0.43368572 0.49946558 0.50261295 0.4057061 0.32083797 0.43541187 0.4713937 0.48905283 0.18543568 0.40182847 0.42637447 0.46237418 0.23674394 0.003951095 0.24311036 0.40463206 0.40939325 0.43341202 0.43827498 0.0013326369 -0.12128444 -0.13093628 0.20676288 0.27820724 0.31905234 0.45670366 0.3786725 0.33679444 0.39437908 0.5753515 0.53830224 0.3731459 0.33800626 0.28892636 0.32490993 0.40548003 0.4142686 0.35024297 0.29839605 0.28834552 -0.015237306 0.067116156 0.22313333 0.27048784 0.25788736 0.2902676 0.4465564 0.5324712 0.5674178 0.5678371 0.10950099 -0.07678306 -0.010628279 0.54493123 0.5459386 0.05835942 0.03754556 -0.15536323 0.47345436 0.1506945 0.40272248 0.5784095 0.6256988 0.6803129 0.09108274 0.121736385 0.43794015 0.43333572 0.36964303 0.30051187 0.54338896 0.60912955 0.68500394 0.68660223 -0.015627213 -0.084508 -0.07553522 0.6375766 0.6592338 0.0076635294 0.654068 -0.029721586 0.6610997 -0.1217455 0.5894191 -0.0729598 0.43476933 0.17368308 0.44579256 0.45683742 0.33094868 0.2612512 -0.08393195 0.38937604 0.26732033 0.16380735 0.23851237 0.42717576 0.28884774 0.5032594 0.41621095 0.49896044 0.42659664 0.446028 0.4155267 0.21048705 0.15813603 0.41408694 0.46994236 0.36586207 0.4114533 0.25263935 0.17416643 0.45763698 0.51952815 0.4617163 0.5569988 0.47058702 0.45017856 0.53025067 0.4891168 0.46962565 0.31245464 0.4744985 0.48477238 0.44202694 0.4589785 0.06380296 0.30993938 0.3976563 0.43188262 0.43639165 0.43992138 0.24081261 0.11002452 0.34810466 0.13034837 0.16973071 0.23339519 0.4410547 0.36782312 0.17828862 0.09290744 0.26205897 0.35241437 0.30585533 0.28924462 0.24930462 0.21699013 0.35065567 0.313364 0.27949247 0.27898 0.19402346 0.1126575 0.26326334 0.23984319 0.19608857 0.5380186 0.5767946 0.09117535 0.042206153 0.39219487 0.51853037 0.57056904 0.5931958 0.59076846 0.17687109 0.12768926 0.09137393 0.58349323 0.13787137 0.11675878 0.12249972 0.53621733 0.45722535 0.17632367 0.5909022 0.65033793 0.6917541 0.16992635 0.13418648 0.45821917 0.45893827 0.42640737 0.4718689 0.53248006 0.712037 0.71643734 0.12438075 0.11471288 0.7079616 0.7108917 -0.19096184 0.72252953 0.7151743 -0.29917014 0.5967902 0.34928343 0.4039973 0.5694385 0.51959634 0.114788055 0.59683895 -0.024528071 0.5897291 0.53347385 0.43118185 0.35535222 0.32236952 0.27004528 0.2643151 0.4721628 0.51130784 0.5279463 0.37679258 0.529678 0.41034368 0.43716854 0.44957554 0.4908699 0.43676254 0.4024742 0.3602515 0.21696669 0.51821595 0.22901578 0.58004856 0.2439397 0.5864841 0.34555227 0.5302175 0.37135798 0.420151 0.386885 0.4514748 0.4563949 -0.11935916 0.3984719 0.4211675 0.43549776 0.15214315 0.27853897 0.3312571 0.41904038 0.2682675 0.47207427 0.45710295 0.5690076 0.5080043 0.48733497 0.25329947 0.59178233 0.5791296 0.50361234 0.28621212 0.5243895 0.42164838 0.38284832 0.32019973 0.33501056 0.3196532 0.3103275 0.38180447 0.37701043 0.48110816 0.43532002 0.36126715 0.11863459 0.12501277 0.078016706 0.084075406 0.44979727 0.43564838 0.38905576 0.17145967 0.010504451 0.09582994 0.07365678 0.160911 0.12989336 0.5599657 0.57839525 0.40724385 0.06154596 0.5113973 0.58967185 0.5924941 0.5865911 0.1529162 0.5440444 0.56323975 0.11643576 0.5077183 0.61636317 0.64376795 0.6801202 0.23588419 0.37455603 0.36743408 0.38473594 0.41346622 0.54951364 0.63512814 0.6878145 0.7057607 0.17501156 0.69224834 0.70043314 0.14869817 0.67425525 0.6915699 0.6768846 -0.21958938 0.54199815 0.6015658 0.5882789 0.5043248 0.10146299 0.63352877 0.0461805 0.037287444 0.6022097 0.08557875 0.5494126 0.4831283 0.4389716 0.41684788 0.3116237 0.507006 0.25435898 0.54028374 0.528822 0.36840123 0.52571 0.4122876 0.43074566 0.42762786 0.4737128 0.4354457 0.42331934 0.27777764 0.33849305 -0.2578221 0.16083047 0.029639915 0.18112195 0.19647548 0.22143015 0.20610388 0.22827092 0.616675 -0.048024327 0.25935248 -0.21136224 0.20233923 0.2541728 0.3534739 -0.2658652 -0.21241497 0.00488203 -0.02095607 0.07996951 0.3218594 0.039697424 0.09256251 0.06789699 0.32595575 0.44793186 -0.09347562 0.52209806 0.097330086 0.6034205 0.61182445 0.5973873 0.29249167 0.569618 0.4908107 0.43545705 0.36332253 0.3765351 0.41748297 0.40812606 0.36398137 0.31053704 0.3484957 0.40011612 0.40306792 0.20075552 0.23488016 0.16643798 0.57539487 0.5461091 0.48211187 0.41921046 0.14065287 0.08525354 -0.0032810122 0.52058977 0.5268988 0.08685727 0.23733357 0.33174485 0.35303235 0.57197773 0.57919896 0.5493043 0.56885827 0.5537765 0.06720273 0.49841297 0.44495082 0.078610584 0.14127193 0.3696537 0.30225933 0.2935788 0.19429672 0.1486663 0.23627119 0.5344365 0.61116916 0.6500008 0.2349311 0.09439838 0.23663357 0.24973537 0.33663946 0.48024607 0.55468345 0.63911486 0.6643841 0.19345385 0.1577363 0.15037453 0.24137136 0.5999677 0.641762 0.6618403 0.04826115 0.34787837 0.38434905 0.4841183 0.5856553 0.6336309 0.4142385 0.52423334 0.055222824 0.24869682 0.37950516 0.59863114 -0.13591127 -0.057911586 0.6371033 0.017755762 0.04621949 0.5996493 0.02026238 0.5390008 0.47973335 0.26960146 0.4505551 0.39950195 0.13338429 0.43908703 0.4973209 0.2742917 0.5367177 0.336477 0.4326722 0.47851074 0.39340663 0.39550424 0.21795534 0.34727857 0.3812213 0.1050071 0.19391595 -0.17355819 -0.1214498 0.5358274 0.19660464 0.8038564 0.7013022 0.22983542 0.20962432 0.83222556 0.80549544 0.15224464 0.23256406 0.85156095 0.7982052 0.29495096 0.04858808 -0.015263282 0.833693 0.76722145 0.569126 0.49855453 0.22641923 -0.028083868 0.73344713 0.702142 0.5332911 0.383145 -0.11759085 0.2129164 0.23847851 -0.1859558 0.020441294 0.35318387 -0.22015473 0.47265434 0.11313074 0.6510674 0.6133088 0.56797475 0.34544978 0.54570794 0.47772536 0.43188202 0.41007254 0.42509133 0.41684908 0.40645444 0.35767603 0.43928126 0.44053975 0.4486916 0.7145786 0.7280607 0.6804092 0.6107595 0.49775064 0.35380852 0.48754087 0.29251546 0.30525458 0.30251408 0.15331538 0.26007256 0.16641337 0.5854378 0.4835596 0.33052033 0.045817852 0.23846537 0.3258728 0.55143625 0.36354035 0.37720197 0.39552614 0.4908992 0.37556657 0.38209546 0.49192965 0.500471 0.5027451 0.3344611 0.31647542 0.4098624 0.24748307 0.3348982 0.26333404 0.30478466 0.39327374 0.20571913 0.3630462 0.3090657 0.3395584 0.11346364 0.16270891 0.24122706 0.13779795 0.42392123 0.520943 0.04224007 0.07509276 0.35573995 0.4392075 0.15479955 0.14064716 -0.0104958415 0.5177898 -0.12030372 0.56505394 -0.021412326 0.5643549 0.12058098 0.51950705 0.42653084 0.28250983 0.3606329 0.10217412 0.44209975 0.23531383 0.45084924 0.2914806 0.27295098 0.31943455 0.417288 0.35550064 0.31584504 0.21809262 0.34465003 0.2171677 0.16105081 0.10271315 -0.03346648 0.11531974 0.70324504 0.6076767 0.19394717 0.7892427 0.23939082 0.22389677 0.8435694 0.18923548 0.22823188 0.8711263 -0.11693898 0.8598428 0.7985143 0.74607456 0.40514445 0.16590233 -0.04684075 0.2613104 0.80507493 0.7867012 0.7531946 -0.033700675 -0.07108825 0.2607919 0.3640179 0.42551938 -0.069595344 0.2645986 0.13095093 0.53876823 0.29706872 0.5264189 0.39261547 0.43782133 0.40349245 0.40910637 0.45172188 0.37398046 0.48291212 0.54017586 0.5166544 0.4820462 0.8656132 0.8214323 0.8789736 0.812675 0.75602794 0.71364343 0.79509974 0.6079409 0.38078585 0.34244955 0.31669956 0.3938485 0.30656064 0.29619578 0.5505953 0.5724579 0.52703726 0.18808335 0.51669586 0.34864682 0.3720377 0.38005477 0.33288503 0.29633313 0.39849788 0.14437371 0.2803508 0.500035 0.023426821 -0.18051478 0.115679875 0.23325142 0.2122945 0.4195503 0.019144211 0.03580583 0.09024551 0.40396833 0.030585665 0.35452372 -0.054886673 -0.12207846 0.3000018 -0.08780749 0.050758243 -0.09438256 -0.08869924 0.2197298 0.3490712 0.26263815 -0.11247817 -0.07046056 0.3672218 -0.048529774 0.478246 0.116154395 0.06911753 0.1704343 0.25636292 -0.11725938 0.3340725 0.20666151 0.3378166 0.23544472 0.14884405 0.14248842 0.30330384 0.20048049 -0.026469186 0.079925776 0.09220809 0.066706955 0.055750217 0.14141116 0.20293838 0.57911325 0.52345634 0.22743529 0.21693666 0.77365685 0.71567965 0.2249843 0.817111 -0.013179943 0.1653414 0.14527684 0.8466909 -0.103491984 -0.12472682 0.84203124 0.80262005 0.8083757 0.47146064 0.05179076 0.8106651 0.80521727 0.8081241 0.7692757 0.40460598 0.41638473 0.016964722 0.34894538 0.41751945 0.428761 0.24331692 0.41037485 0.2785329 0.35143334 0.3487162 0.28447673 0.44582856 0.35897467 0.3223824 0.31401908 0.51117563 0.47415495 0.5104952 0.5571321 0.5543176 0.52469456 0.9261535 0.9703858 0.9107008 0.7728859 0.81962055 0.874038 0.6716683 0.5688045 0.73481274 0.4363711 0.3731727 0.6972395 0.34359053 0.3273184 0.30233642 0.6355362 0.45149958 0.4155507 0.5108198 0.2532749 0.17723048 0.24427933 0.55436766 0.5020651 0.39680904 0.063090354 0.114765495 0.5771117 -0.0022115204 -0.10772967 0.48100203 -0.21915439 -0.15202233 -0.081286244 0.49235892 0.43226752 -0.07429968 -0.017209763 0.014070448 -0.078753084 0.43449098 0.387711 0.11738823 0.33514193 0.06262094 0.