# vtk DataFile Version 2.0
Really cool data
ASCII
DATASET POLYDATA
POINTS 4257 float
88.43124 43.670643 49.871155
88.43983 43.915714 50.27623
88.41964 44.286976 49.701004
88.41819 44.43122 50.18269
88.25722 50.67597 55.31003
88.28011 50.914185 56.213844
88.392525 51.654984 54.044025
88.17569 51.531174 54.775402
87.9986 51.683167 55.507927
88.12312 51.625698 56.332
88.41161 51.669212 56.908604
88.30309 52.190094 54.63064
88.0342 52.414665 55.530537
88.14875 52.42216 56.20086
88.34635 52.15979 56.866898
88.20804 52.866898 55.707752
88.24519 52.77551 56.07748
89.4246 37.409542 43.774624
89.35813 37.459396 44.512936
89.3862 38.169727 44.537663
89.39619 38.15311 45.156853
89.337776 39.604347 46.927265
89.17255 40.00916 47.69346
89.3715 39.628265 48.2275
89.4391 39.884323 51.831673
89.39529 40.15319 52.382843
89.19067 40.266865 46.886917
89.09559 40.41859 47.35429
89.20007 40.44882 48.15261
89.37382 40.44874 50.013874
89.26688 40.61913 51.511627
89.314766 40.678673 52.5183
89.3417 41.069687 53.200123
89.29763 41.113018 46.87167
89.22787 41.009132 47.3716
89.23341 41.553734 50.727062
89.052795 41.569794 51.5313
89.12382 41.401123 52.340546
89.37359 41.314125 53.28095
88.827835 43.257828 49.4441
89.07965 42.52105 50.369537
89.03795 42.54551 51.750687
89.16805 42.325417 52.514214
89.32254 42.343727 53.474113
89.00518 43.86098 48.719303
88.60343 43.67506 49.55815
88.51471 43.679276 50.3323
88.88732 43.946556 51.737343
89.04229 43.56316 51.97972
89.43331 43.15788 52.96955
88.934685 44.485924 48.77387
88.614655 44.565723 49.27623
88.496216 44.823902 50.36913
88.71453 44.70244 51.14854
89.31493 44.905422 52.532486
88.950676 45.158566 48.843266
88.69082 45.243286 49.572224
88.69471 45.511547 50.238495
88.83794 45.369232 51.220898
89.33361 45.512115 52.28975
89.30247 45.7698 48.874886
89.11132 46.14449 49.735027
89.22306 46.49487 50.243057
89.16495 46.605778 51.55182
89.43314 47.198692 50.487793
89.16282 47.034786 51.741013
89.34556 47.842567 52.047436
89.34761 48.840755 50.998604
89.24054 48.93044 51.714264
89.26351 48.84195 52.28781
89.16116 49.05378 54.322273
89.09333 48.80363 55.49368
89.22414 48.91479 56.14289
89.25356 49.99439 51.061764
89.12657 49.605736 52.641674
88.946205 49.751827 53.483444
88.820305 49.717632 54.541054
88.715355 49.509884 55.416687
89.27899 49.717976 56.814034
89.20019 50.599052 51.771004
89.01598 50.783146 52.464195
88.61226 50.332428 53.934425
88.5686 50.537052 56.45481
89.20213 51.060394 51.964993
88.57451 51.612095 53.800602
88.70137 51.445736 57.283184
89.1043 51.811882 57.76227
88.982445 51.98359 52.94056
88.76126 52.171597 53.49276
88.449234 52.457916 56.859642
89.08886 52.156185 57.812733
89.32176 53.148937 52.94159
89.0934 53.13333 53.649242
88.74727 53.22167 54.97181
88.47034 53.10009 55.5122
88.513824 53.157036 56.208237
89.14298 53.118237 57.440968
89.10892 53.758595 55.932045
90.21044 35.93596 43.979145
90.15368 35.78694 44.51748
90.24779 35.794174 45.18894
89.88146 37.015392 43.075603
89.75922 36.708378 43.558403
89.65671 36.65447 44.327785
89.85019 36.599976 45.111008
90.11122 37.007656 46.10346
89.89495 37.585682 42.94928
89.491486 37.585423 43.366547
89.47605 37.20352 44.779133
89.57057 37.515995 45.510967
90.01156 37.555305 46.149124
90.2342 38.257553 49.982807
90.33795 37.984596 51.244835
90.37691 38.135773 51.8903
90.1441 38.513325 42.87868
89.56382 38.366573 43.628693
89.51248 38.449585 44.246098
89.61248 39.223694 47.449097
89.812 39.024143 48.453526
89.973694 38.6413 49.530655
90.0374 38.558636 50.111225
90.23106 38.791428 52.38383
90.28145 39.22316 42.921825
89.92912 39.267128 43.555332
89.67221 38.96659 44.238052
89.54337 38.96479 45.125435
89.52167 39.353256 47.3415
89.5815 39.690144 48.330917
89.58968 39.49301 49.617664
89.70943 39.511475 50.503147
89.75924 39.44765 51.76288
89.699326 39.67455 51.949665
90.197815 39.680767 53.392784
90.16219 39.796883 54.154896
90.34316 39.991085 43.250664
89.459915 40.618755 46.500046
89.45016 40.251797 52.708824
89.71608 40.607513 53.60509
89.94523 40.39254 54.30154
90.2168 40.68431 55.059494
90.32292 41.103718 55.92721
90.239624 40.935284 45.74991
89.695145 41.348595 46.708
89.46383 41.69486 47.636322
89.525696 41.550888 48.170017
89.65822 41.457657 54.38901
89.9347 41.24888 55.099854
90.308754 41.643875 56.32246
89.576164 42.430805 54.005157
89.9446 42.223763 55.09529
90.07685 42.721687 56.505974
90.370445 43.012505 58.11234
90.28668 43.889866 32.13872
90.21028 43.670834 32.62894
90.22999 43.776276 33.227768
89.45636 43.392056 53.00065
89.84023 42.878277 54.27489
89.93347 43.68737 56.904053
90.01638 43.608604 57.553585
90.16501 43.766518 58.52705
90.30163 43.961884 58.958138
90.30132 44.51125 32.085487
90.11392 44.35996 32.426678
90.10358 44.381977 33.41006
90.3402 44.610313 34.12004
89.87217 44.32429 48.18149
89.71939 44.27811 53.04365
90.17986 44.147766 56.014767
89.95656 44.50557 57.86548
90.06613 44.50876 58.4053
90.194695 44.316715 58.852875
90.36558 45.225685 32.434555
90.32501 45.29398 33.414204
89.47347 45.424046 48.38195
89.7929 44.993526 53.071846
90.14226 45.199593 56.57015
90.129745 45.390995 57.705845
90.2053 45.165035 58.41875
90.3871 45.00035 58.790382
89.66347 46.25045 52.448257
90.29235 46.714214 54.372616
90.313736 46.22116 56.6251
90.36404 46.18358 57.456955
90.02153 47.597622 49.61447
89.62354 47.051014 52.61971
89.92157 47.69468 53.401974
89.80197 48.036736 55.458904
89.50835 48.555126 52.179745
89.67994 48.474297 53.231647
89.42018 48.483055 54.428894
90.34167 50.207054 47.289043
90.106514 50.9255 46.97414
89.99099 50.714737 47.62344
89.85687 51.882484 46.707176
89.752205 51.644875 47.439117
89.81842 51.735374 48.17242
89.98627 51.402504 50.502754
89.46221 51.180584 51.207695
89.34149 51.458946 57.812733
90.13078 52.130005 58.9363
90.009285 52.862362 46.0878
89.69803 52.646355 46.651466
89.670654 52.632954 47.445156
89.95321 52.43486 48.318058
90.0585 51.858776 51.524662
89.50862 52.362446 52.30023
89.9886 52.889164 59.552265
90.21659 52.94936 59.922306
90.00561 53.185757 46.13297
89.815094 53.370262 46.63301
89.79429 53.30007 47.39662
90.02401 53.161385 48.36202
89.75809 53.17308 52.436646
89.46818 53.671833 53.22594
89.700386 53.56728 58.617805
89.92963 53.659916 59.472214
90.1816 53.29678 59.955387
90.171684 53.716877 46.161587
90.16217 53.81759 46.5127
90.0843 53.921337 47.258186
89.97816 54.049355 52.78907
89.69312 54.096737 53.52384
89.607704 54.17604 55.5485
89.63738 54.254395 57.649696
89.88213 54.62685 58.41009
90.147736 54.17136 59.51031
90.242256 54.061607 59.81372
90.17499 55.742195 56.597454
90.01557 55.51741 57.436733
90.158936 55.42711 58.239624
90.197784 54.89269 58.862682
90.36118 55.792553 56.558136
90.22795 55.929993 57.50938
90.96865 35.168415 44.044403
90.85191 35.031956 44.446518
90.702995 35.118397 45.20839
91.04782 35.082813 45.965717
90.51399 36.26196 43.156067
90.70042 35.545776 43.815235
90.424126 35.37316 44.449623
90.699005 35.599632 45.91808
90.58996 36.764374 42.87737
90.43151 36.743217 46.21788
90.88171 36.605564 47.021004
91.023674 36.87866 50.535656
91.1983 36.867477 51.386364
91.21538 37.099415 51.95251
90.92162 37.565594 42.465324
90.44012 37.71809 42.57247
90.6783 37.79225 47.14966
91.22836 37.416473 49.123444
90.532326 37.889683 50.42927
90.74393 37.480595 51.33814
90.66354 37.848717 51.997604
90.42099 38.427063 42.604027
90.42759 38.46992 52.356564
90.73456 38.722527 53.34882
90.893715 38.814003 54.20472
90.537674 39.58411 54.689453
91.008255 39.448174 55.4514
90.9657 39.96843 56.240154
90.77387 40.070137 42.850998
90.6703 40.56888 43.231827
90.44169 40.22723 44.53933
90.60728 40.912872 56.30439
91.08478 42.01641 41.85222
91.1881 41.32842 42.639915
91.11172 40.911022 43.286488
90.52686 41.19519 56.434055
90.72746 42.1668 56.98179
91.01465 43.135303 32.05564
90.77724 43.102554 32.536495
90.80406 43.16114 33.29752
90.897865 42.976166 41.111874
90.95441 42.574306 41.56749
90.67592 42.899708 42.165703
90.910736 42.716724 43.37149
91.2788 42.950306 44.353413
91.21071 41.998077 46.072044
90.25203 41.79701 47.09207
90.66626 42.308575 57.537495
90.73972 43.206444 58.996216
91.0305 44.044746 31.388865
90.679665 43.67842 31.845554
90.43715 43.395107 32.515633
90.41741 43.519512 33.352135
90.724525 43.682964 34.063457
90.770744 44.182713 34.783348
91.02318 43.495594 41.01261
90.71315 43.49822 41.652752
90.6228 43.52768 42.386898
90.75766 43.43054 43.366863
91.34501 43.420845 44.48314
90.78448 44.063324 48.182274
90.41849 43.30288 58.58801
90.7018 43.739456 59.25557
90.93279 43.970676 59.55305
91.16274 44.500973 31.280758
90.70002 44.601105 31.620821
90.5812 44.59774 34.56944
90.90695 44.54032 35.06773
91.02898 44.08228 41.147835
90.915764 44.45455 42.298164
91.44208 44.797775 46.86244
90.65691 44.44425 59.342552
90.92677 44.261314 59.55956
91.15729 44.979313 31.307407
90.74772 45.180965 31.874903
90.5308 45.438763 32.42232
90.59325 45.62753 34.444374
90.79612 45.273354 35.052227
91.26499 45.087948 35.624027
91.461464 45.54368 41.01562
91.19998 46.058235 41.84287
91.26675 45.56754 43.74817
91.48579 45.25652 44.841354
90.72956 45.625088 47.98727
90.425575 45.001713 53.60707
90.482056 45.672237 58.503
90.686676 45.093945 59.064106
90.982635 46.0716 32.87667
90.931656 46.268723 33.686977
90.94818 46.17257 34.364502
91.29783 46.4815 40.742294
91.249115 46.801464 41.58006
91.13332 46.423595 42.337955
90.96472 46.56871 43.184628
91.388664 46.233727 44.533157
90.90798 46.406017 58.503086
90.82935 45.8821 58.822018
91.27035 47.668682 40.01738
91.15787 47.634857 40.660767
91.09399 47.439808 41.421703
90.95743 47.479004 42.74851
90.9538 47.552826 43.614735
91.11053 47.548058 44.515553
91.04212 47.688313 46.61481
91.12974 47.005848 48.740078
90.71307 47.220875 57.40657
91.095955 47.070606 58.190964
91.277245 47.893845 40.071884
91.299934 48.272602 40.63861
91.25018 48.223293 41.15466
91.27403 48.267696 43.141075
91.06996 48.557354 44.250763
91.01462 48.962646 46.022903
90.47125 48.921402 49.362156
91.11234 49.66191 44.434204
91.04177 49.74003 45.660126
90.61516 50.15224 46.814537
[...]
POINT_DATA 4257
SCALARS features_00 float 1
LOOKUP_TABLE default
0.3925664 0.37670186 0.4334964 0.40816012 0.4693619 0.5193427 0.36337692 0.46532178 0.52256995 0.52153045 0.4937806 0.43920857 0.50108767 0.5039822 0.4908672 0.4814818 0.48813283 0.61706054 0.5771388 0.53298056 0.45892313 0.32284608 0.35151753 0.26010638 0.19322692 0.20415327 0.39382786 0.40039015 0.3685486 0.16886824 0.20922427 0.21891177 0.22793363 0.418006 0.43053558 0.18538347 0.22982627 0.23318017 0.22820625 0.3549282 0.22901265 0.22521707 0.21363743 0.19406289 0.44345108 0.40672946 0.35686228 0.22970468 0.20403028 0.15449426 0.47507972 0.45459795 0.4000312 0.3014404 0.14718467 0.4662074 0.44293383 0.39993402 0.28389966 0.13626109 0.41864234 0.3798915 0.3252994 0.17443465 0.2281413 0.12105769 0.038659066 0.15168582 0.097005546 0.050801024 0.12785277 0.26153898 0.37576962 0.21437806 0.11123579 0.14061694 0.24329613 0.34007096 0.47975796 0.18664117 0.20573705 0.26703942 0.49786717 0.18901548 0.3204158 0.46363497 0.44225323 0.22029057 0.2776429 0.47932434 0.44232303 0.2434254 0.2999685 0.3980138 0.44737288 0.45190775 0.41224983 0.37221885 0.562733 0.54293 0.50291926 0.62321436 0.62314105 0.59798974 0.53112996 0.37615138 0.6115021 0.61695266 0.56230366 0.45369345 0.31159887 0.14834473 0.16002119 0.1549112 0.52480286 0.5432081 0.51698333 0.23302251 0.15332153 0.12876749 0.14917049 0.15933162 0.40324265 0.39274544 0.43154025 0.35310745 0.26617846 0.24960658 0.14412075 0.16455022 0.17980963 0.18603772 0.19535086 0.21027842 0.21740744 0.3984513 0.208087 0.22285987 0.2192129 0.20102465 0.13390821 0.26399517 0.38517076 0.40226257 0.3847534 0.21974021 0.19763051 0.10077216 0.18374732 0.1591118 0.17301866 0.39466548 0.82257223 0.8207355 0.79041564 0.14346318 0.13227321 0.3655401 0.42677402 0.5243715 0.54887617 0.8204138 0.8330229 0.7855716 0.70743203 0.44016373 0.1301236 0.27847677 0.5125218 0.54546833 0.5565292 0.8251014 0.83148813 0.44075882 0.10977823 0.40960747 0.49347872 0.5355677 0.54603547 0.059658684 -0.1631231 0.37669086 0.4540544 0.14712733 0.0015470311 -0.06390947 0.09637905 0.034880638 -0.012281939 0.07760265 0.12757125 0.28162533 0.23854673 0.47763652 0.47419423 0.4572102 0.051508714 0.14899978 0.3984974 0.4588369 0.5560393 0.58610773 0.59789324 0.49927115 0.11331021 0.18639176 0.58462673 0.6551846 0.5678602 0.6028204 0.6153153 0.5300001 0.21968453 0.27200592 0.4638867 0.58491445 0.6691436 0.56891716 0.5864409 0.59644675 0.24570003 0.2785666 0.29530382 0.40717274 0.48663217 0.60033995 0.64207006 0.47218055 0.5258971 0.55046904 0.546198 0.47804102 0.56475115 0.48592496 0.47982424 0.46413547 0.3900781 0.54810154 0.51541054 0.5122217 0.4101415 0.54881036 0.35784602 0.19235653 0.14803764 0.15164594 0.13591279 0.49171123 0.558066 0.07606258 0.08355916 0.15802541 0.1527219 0.1446223 0.52015793 0.15169641 0.17549205 0.19690034 0.20342521 0.17378849 0.12996295 0.16907692 0.077467754 0.15937737 0.10140996 0.1450408 0.03975994 0.009708893 0.087648764 0.1213851 0.77685654 0.78829825 0.7420642 0.18234675 0.18758169 0.23586491 0.21103942 0.1328669 0.1385888 0.3275485 0.1775339 0.47526366 0.78010607 0.8035309 0.81302893 0.76709557 0.65379363 0.5922455 0.17140117 0.23384568 0.256028 0.23011322 0.12576452 0.2748285 0.4797377 0.5330601 0.53330237 0.77396417 0.7939411 0.6698796 0.58190256 0.14538231 0.16005564 -0.1648795 0.5486124 0.5363531 0.76891637 0.78892565 0.8108335 0.7339475 0.64653546 0.5515473 0.09023103 0.12991007 0.089531764 -0.023386536 0.24830566 0.033995803 0.50545543 0.52843285 0.7308892 0.72046936 0.728729 0.22788283 0.22062053 0.15579098 0.15200064 0.07250195 0.41443554 0.46607175 0.42210487 0.3607698 0.2910718 0.21259344 0.15535156 0.10421263 -0.008903548 0.16903605 0.33922452 0.32880482 0.4447232 0.43170524 0.3785774 0.18646963 0.10794802 0.024454745 -0.11586388 0.17423671 0.11506065 0.13237557 0.0018252805 0.0057921857 0.12808898 0.20580518 0.21660207 0.16869107 0.14979462 0.13581796 0.1934541 0.27147597 0.32739276 0.29197323 0.56019187 0.6459548 0.111531496 -0.04278594 0.71494484 0.51776236 0.1977484 0.7274976 0.5507315 0.5721053 0.5703498 0.5276288 0.21527761 0.21041784 0.606074 0.6952126 0.57490504 0.57130295 0.5241754 0.17473361 0.2108235 0.267205 0.34376734 0.59553915 0.5951797 0.36632478 0.40040398 0.52619714 0.5809316 0.60060894 0.3191047 0.44024944 0.4376143 0.41169047 0.2721468 0.15360413 0.13742822 0.14404199 0.4686854 0.45957416 0.1977443 0.1208628 0.13272801 0.1474016 0.15339646 0.15952177 0.45009756 0.14270584 0.13628228 0.16213769 0.19268152 0.4834062 0.5555105 0.34617144 0.19014028 0.22130549 0.23563814 0.35282585 0.47098607 0.2835337 0.37045255 0.40926486 0.014848847 0.18607762 0.25599545 0.3247855 0.16769594 0.14339936 0.11549637 0.0766985 0.23421474 0.71363485 0.7072205 0.193416 0.17908224 0.18221352 0.14480615 0.11800581 0.41302395 0.73417336 0.7544735 0.18754849 0.14111023 0.4757589 0.7504202 0.06623087 0.095001414 -0.1308099 0.5136925 0.7551595 0.35749513 0.09837964 0.143739 0.16564238 0.08529927 0.015103976 0.42272508 0.47739863 0.71650684 0.6119028 0.6533235 0.6599862 0.2781613 0.36270905 0.34594083 0.37599087 0.5524416 0.5750251 0.51100177 0.25509116 0.49758393 0.39875847 -0.02180402 0.10449914 0.4594991 0.4506868 0.38786203 0.2653185 -0.008288398 0.27162403 0.16660872 0.20507835 0.19682883 0.24571428 0.40728498 0.62614536 0.3458201 0.42044795 0.73866177 0.40030015 0.78374195 0.5016781 0.54887617 0.29678628 0.20659132 0.13139725 0.7604058 0.5608215 0.5575234 0.50207686 0.097020835 0.13757321 0.6432216 0.26119623 0.40898263 0.47758508 0.58887625 0.6227504 0.38426408 0.51139164 0.5602213 0.27166796 0.20120402 0.16134001 0.1699051 0.1563164 0.13650504 0.33038768 0.37928575 0.14188081 0.34787983 0.15360655 0.16665666 0.17495714 0.2657916 0.30529624 0.6266538 0.6883931 0.22270912 0.1250413 0.41272104 0.5723597 0.62267286 0.67025197 0.21181676 0.5670277 0.55643725 -0.11256166 0.4464423 0.4556253 0.11238301 0.07044561 -0.009850878 0.37839934 0.52389604 0.13649204 0.20563036 0.26722726 0.6013154 0.53163433 0.413059 0.24428368 0.6590642 0.57348293 0.6876231 0.39232492 0.7270253 0.15458143 0.19051933 0.52545786 0.3192684 0.30628675 0.16955847 0.49078885 0.49748015 0.5027408 0.48481447 0.18607467 0.4332509 0.46042937 0.40526664 0.4144223 0.34638572 0.35820422 0.2629325 0.12929809 0.13729014 0.28477663 0.07292248 0.16668889 0.57814074 0.18642151 0.68892443 0.29488978 0.28805465 0.6714823 0.41102216 0.45657593 0.5790932 0.48295474 0.47710377 0.39557922 0.08435276 0.09536554 0.11054818 0.5426187 0.092938974 0.111097515 0.18595332 0.29410586 0.558299 0.5178952 0.33249116 0.3748884 0.44798005 0.37246728 0.42714733 0.4681879 0.10830155 0.13100222 0.2247305 0.2878365 0.2640429 0.13400298 0.16527948 0.16311023 0.17722687 0.11624265 0.12867182 0.23273444 0.11900896 0.13627118 0.15248281 0.08526821 0.17379573 -0.00058924407 0.11841726 0.65603733 0.7085687 0.72815543 0.3802545 0.06259204 -0.17247745 -0.12934026 0.43678203 0.7145419 0.67059195 0.3328119 0.556898 -0.05951134 -0.27310842 0.4325711 -0.007911131 0.004809499 0.37100658 0.23073727 0.25248486 0.487492 0.45863026 0.088109 0.44839752 0.11695698 0.06577879 0.03103774 0.3710494 -0.06609662 0.37143937 0.36433244 0.27290666 0.23592032 0.42742336 -0.20916814 0.34458643 -0.26779512 0.36467022 0.27674773 0.26132497 0.21166052 0.13916063 0.09045838 0.4608938 0.20101213 0.21345863 0.18619686 0.54546803 0.33909506 0.28919414 0.32858458 0.36275172 0.3371668 0.24971339 0.20021808 0.37864685 0.44473374 0.163948 0.10378418 0.112858 0.14679661 0.2662598 0.27388048 0.3942617 0.44355974 0.35067594 0.29492167 0.3883565 0.49860787 0.537616 0.49228078 0.20961154 0.3774727 0.4228078 0.10241674 0.09638436 0.11450341 0.31243902 0.088360235 0.034284048 0.16486366 0.13182688 0.08739947 0.12633829 0.0932415 0.13874975 0.08142053 0.42176083 0.3953929 0.30508906 0.06939235 -0.006647669 0.6904769 0.6993224 0.4142537 0.4236697 -0.30317774 -0.10409528 0.43696114 0.64812803 0.6678607 0.33123475 -0.13252407 0.51188654 0.19685155 0.16671039 0.43561733 0.36247277 0.32956272 0.19778162 0.12501962 0.20906919 0.09621732 0.28779262 0.27444714 0.15926215 0.15588415 0.1669727 0.18431963 0.07272466 0.14137498 -0.19571915 -0.07857865 -0.018174835 0.4245566 0.040038437 0.028588919 -0.13040514 0.2512438 -0.23729931 0.17218621 0.17808837 -0.21428151 -0.22846138 0.23215005 -0.13530798 -0.04794285 0.1661501 0.009318584 0.20504975 0.15156259 0.07608724 0.14550954 0.12163983 0.10450009 0.19071943 0.20571083 0.20630912 0.16692168 0.23990193 0.24771012 0.23172846 0.0836868 0.21981516 0.17927828 0.13377029 0.09262939 0.20624897 0.18502796 0.31062025 0.43159622 0.51414603 0.5180352 0.4336359 0.22385302 0.5117271 0.061638825 0.48684782 0.585238 0.61988604 0.63150597 0.14458866 0.18890849 0.45688277 0.57402945 0.097801894 0.13964829 0.35391343 0.3513873 0.07392575 -0.0043432675 0.38966268 0.3887645 0.3581637 0.2198701 -0.1249398 0.55358857 0.5610417 0.39597654 -0.14892325 -0.2365542 0.38268712 0.5039991 0.20186502 0.30004305 0.18396169 0.25048405 0.14626135 0.13765281 0.21518062 -0.03765624 0.2142042 0.01696831 0.10973705 0.17831197 0.047772013 0.13265589 0.78816664 0.45469886 0.42166185 -0.06410484 0.6703179 0.5754974 0.08421345 -0.054889172 -0.17282428 -0.23633549 0.3965575 0.42542303 0.602768 0.50476015 0.22240216 0.17391409 0.10767619 -0.2319827 0.39673936 0.44151056 0.26822224 0.22370182 0.29261425 0.3283576 0.12557347 0.3970117 0.41695046 0.24435845 0.31051028 0.2711341 0.28037703 0.28617415 0.13880979 0.1957089 0.37305272 0.20115966 0.20928368 0.36795557 0.1939322 0.17111307 0.25978726 0.3430485 0.41180858 0.19545454 0.20375723 0.10683428 0.2391876 0.16474837 0.10650283 0.09624779 0.42014837 0.4560575 0.4003142 0.38133496 0.50580484 0.5049798 0.45906734 0.48177433 0.46091324 0.24890685 0.36139473 0.4101433 0.43210262 0.36158502 0.19309157 0.28386027 0.47354048 0.59726095 0.647318 0.6597786 0.09485645 0.39102456 0.65051526 0.654685 0.12870087 -0.020753812 0.6105119 0.09497723 0.4150208 0.30845743 0.26443726 0.021813046 -0.08468045 -0.010746375 -0.2080291 0.3013272 0.32477552 -0.23550744 -0.33163938 -0.031697243 0.2940602 -0.17188907 -0.009520724 -0.04190548 0.25284502 0.2174891 0.04775446 -0.04505036 0.3248699 0.22807685 0.14805277 0.33061415 0.28814477 0.33861834 0.30339918 0.116396815 0.23958579 0.10461797 0.081191085 0.8687073 0.7928723 0.92135566 0.8911332 0.9683876 0.27626017 0.36160797 0.43006608 0.43703622 0.9342204 0.7596004 0.43752092 0.45433867 0.69258094 0.6236465 -0.09806439 0.4298243 0.4415092 0.45699534 0.3983968 0.49322605 0.52214336 0.5446127 0.4974259 0.35769153 0.2735589 0.31282705 0.42039812 0.44805154 0.4121835 0.4893933 0.52606004 0.4561619 0.39705318 0.44357273 0.3753944 0.37378418 0.24449134 0.04138735 0.43076792 0.5141645 0.53873515 0.49243534 0.5022179 0.49286902 0.46197033 0.39043286 0.3479077 0.29068917 -0.054962233 0.36212465 0.3638749 0.38606334 0.3501278 0.2067585 0.4085348 0.23139372 0.43095094 0.20598385 0.15139331 0.15811792 0.2976338 0.3435686 0.4384094 0.15051928 0.080704175 0.27346468 0.24441148 0.35918218 0.41071782 0.40696847 0.5390832 0.54913354 0.5423868 0.50695676 0.5493652 0.5553669 0.37021595 0.41072538 0.46510398 0.45021707 0.25434917 0.26156896 0.33428693 0.3840381 0.32206655 0.22824064 0.3758059 0.63649535 0.6559858 0.65348524 0.105716296 0.6415651 0.08988598 0.62083143 0.060705543 0.007757837 0.15184197 0.18063658 -0.28098992 -0.076823175 -0.055970516 0.17850506 0.22240254 0.24007678 0.1002407 0.074971914 0.26211208 0.24973173 0.015240549 -0.06388828 0.33656776 0.25988996 0.24984598 0.3550181 0.35623613 0.2961298 0.4213711 0.56376725 0.35367268 0.43548268 0.55505997 0.30409464 0.29178506 0.39775157 0.42997426 0.23825368 0.19389893 0.3060286 0.016527843 0.21121109 0.8278507 0.80183333 0.6529044 0.88983935 0.3102657 0.95811903 0.45584363 0.5622708 0.5946694 0.6056944 0.9493235 0.33636886 0.3674641 0.472395 0.54050934 0.5783045 0.7154035 0.40332347 0.46393782 0.5206734 0.550955 0.5707685 0.4190072 0.20841871 0.36899585 0.5530584 0.5659527 0.47327468 0.5419779 0.13742507 -0.06130941 0.39065725 0.42090714 0.47452015 0.5040402 0.5821435 0.5892198 0.6093296 0.60577154 0.57989776 0.4761709 0.3834982 0.24755359 0.2663348 0.36100417 0.21556899 0.072290026 0.47763604 0.5519621 0.5866024 0.360887 0.39130396 0.40764678 0.18761921 0.33552408 0.22609544 0.21424972 0.43501657 0.14135025 0.13794667 0.44259793 0.15304077 0.15796244 0.39119816 0.43707395 0.2749516 0.390956 0.39981872 0.45601708 0.5140417 0.54234105 0.56496614 0.53845716 0.5527892 0.5616679 0.563552 0.26407504 0.34584445 0.40957582 0.4595467 0.43207234 0.20781769 0.22960503 0.25768217 0.39157364 0.20378616 0.20115554 0.5154131 0.5387199 0.62145317 0.08965227 0.5593476 0.5929737 0.25617057 0.18998349 -0.13625994 0.48466814 0.25205544 0.24519342 0.1476146 -0.177391 -0.48558742 -0.43319547 0.06975129 0.0050272513 -0.24829605 0.17716844 0.08876141 0.056203175 0.34675893 -0.08613369 -0.007733114 0.38585967 0.058061227 0.2011522 0.39892477 0.596731 0.36717004 0.3698271 0.6135752 0.6529677 0.35017422 0.60873145 0.64917624 0.27782446 0.51200795 0.5983123 0.23933542 0.46005085 0.13649206 0.7422277 0.58031774 0.3112478 -0.1971222 0.83854353 0.77419776 0.04735702 0.4918906 0.58710164 0.6476259 0.89098704 0.80214643 0.09188538 0.10462116 0.39204586 0.61746454 0.6571389 0.8632418 0.7602025 0.64484465 0.67769897 0.6898072 0.594368 0.65882874 0.547132 0.456731 -0.33355057 0.58733815 0.5900979 0.50193167 0.21277907 0.07845467 -0.06577785 -0.26796958 0.08989063 0.13657893 0.30100393 0.5825336 0.536008 0.6609142 0.67591715 0.6554458 0.52712035 0.43981558 0.18936478 0.24696258 0.3285368 0.28732574 0.23977217 0.0040026605 -0.17395428 -0.03168723 0.39847553 0.54902935 0.53601825 0.3463536 0.37587827 0.386558 0.13537773 0.14873154 0.12704366 -0.0073535154 0.29349023 0.47835225 0.496292 0.49280638 0.14926228 0.39920425 0.14786908 0.16188109 0.34998214 0.1612838 0.17875208 0.37364733 0.19754659 0.3204049 0.36567718 0.188555 0.361857 0.43939105 0.47487593 0.43251926 0.46370542 0.531622 0.5548583 0.54991984 0.55853003 0.5528737 0.5554044 0.561657 0.10905202 0.23831446 0.39822477 0.45897928 0.07633251 0.13097861 0.2981356 0.398893 0.35800475 0.14054643 0.29116228 0.41915953 0.27961892 0.2681901 -0.048306927 0.103016436 0.24304016 0.4154915 0.24459264 0.27799016 0.2594893 0.20754111 0.061971247 -0.37084094 -0.12036531 0.18067476 0.091639206 0.16938052 0.069907874 -0.014698429 0.16025607 0.10219006 0.016931176 0.1269272 0.06718879 -0.08838927 0.4085709 0.40181118 0.2812498 0.44026387 0.6040281 0.38354647 0.40351367 0.6435635 0.68311924 0.37397653 0.39939353 0.6953831 0.32835576 0.377427 0.6696427 0.22652873 0.3150109 0.5654955 0.1504256 0.16500112 0.58217454 0.18927594 0.10774934 -0.15206201 0.6157593 0.71989644 0.5295229 0.34611994 0.1922698 -0.076656446 -0.030090764 0.34428513 0.52594066 0.6354223 0.6675797 0.67775637 0.734424 0.5900941 0.67801857 0.6701765 0.71531945 0.6066864 0.6694935 0.5859142 0.43363327 0.6609061 0.4147821 0.46045795 -0.2747236 0.5841736 0.5028647 0.5331044 -0.1533211 -0.027300842 0.47086588 0.5963098 0.5919733 0.62835306 0.5565109 0.07827324 0.21004969 0.26852307 -0.18206286 -0.37503818 -0.20196062 -0.18630154 -0.098318234 -0.06652479 0.12937479 0.1767792 0.42284393 0.4122965 0.29236323 -0.0010475907 0.20797196 0.32434082 0.39316633 0.41917688 0.3866945 0.39908057 0.22869766 0.08784479 0.0919485 0.22020501 0.26900327 0.29569268 0.39738593 0.40306076 0.7140857 0.45299178 0.49519795 0.54804504 0.46815002 0.76329505 0.48269546 0.5330763 0.55871683 0.5471131 0.54281545 0.4827918 0.5595679 0.4286647 0.44237447 0.46193397 0.42798394 0.2845683 0.16848482 0.2756371 -0.023881523 0.01582206 0.2422422 0.26294369 0.26120296 0.16107312 0.028886931 -0.2971468 0.15100431 -0.1306695 0.26155734 0.24617241 -0.0787582 -0.21358427 0.3050778 0.25137335 -0.39453256 0.07802724 0.037403192 0.016052376 -0.14221868 0.27963498 0.067291066 0.4832163 0.6048797 0.43380904 0.42675072 0.6326413 0.6640507 0.42675847 0.45373434 0.64801854 0.42621887 0.4090055 0.2854374 0.60566413 0.27178568 0.08423365 -0.19603941 0.5204537 0.14658393 0.035825245 -0.090124525 0.06948307 -0.042917944 -0.029111415 0.011347622 -0.10678948 0.19478562 0.101360865 -0.11678201 0.0067901164 -0.0759627 0.6289121 0.66545004 0.3256903 0.23370016 0.19145669 0.18616307 0.6507279 0.62943697 0.32006553 0.30230048 0.19121045 -0.02126111 0.6133884 0.4007616 0.3843638 0.2785796 -0.16978481 0.58819306 0.4449056 0.42898828 -0.1567612 0.52439517 0.5154706 0.5062653 0.52910393 0.51075035 -0.09663944 -0.071892306 -0.11882703 0.4114405 0.5552946 0.56576437 0.29652402 0.26351908 -0.06843393 -0.070027485 -0.114031 -0.12741405 0.09917107 0.31704372 0.030787233 0.14052936 0.13998654 0.20785405 0.34275892 0.30783024 0.3292151 0.19066131 0.28945786 0.32427704 0.25688073 -0.17054495 0.30547962 0.37048692 0.40526068 0.28891444 0.3183616 0.22170964 0.09592153 -0.083926305 0.5247898 0.40682894 0.3630451 0.37432414 0.22955453 0.76059467 0.49706525 0.52062786 0.44025987 0.5622412 0.7385541 0.7739162 0.77420866 0.7137723 0.77271664 0.62381744 0.6495993 0.64541936 0.5407021 0.5607983 0.5776524 0.5772886 0.52187586 0.4532737 0.42944503 0.28704923 0.2510003 0.27926928 0.0916881 0.45417777 0.4918214 0.2317147 0.24306357 0.27001143 0.19326293 0.075077035 -0.21442032 -0.27172655 -0.34555304 0.41313282 0.41361913 0.2579068 0.23190647 -0.17927176 -0.27681857 -0.18194845 0.2903724 0.2727732 0.33543167 0.2676741 0.35213172 0.010364829 0.010702193 0.42740965 0.35499278 0.28248087 0.37526098 0.41983262 0.26906496 0.3492419 0.33392507 0.15079637 0.2453888 -0.07751229 0.5325799 0.4626311 0.29675415 0.45778537 0.59267604 0.27689943 0.029037789 -0.2477401 0.49826318 -0.16273288 0.31418577 -0.16604936 -0.040735528 0.054729074 -0.13457774 0.06653274 0.115272135 0.55988973 0.061788343 0.31586093 0.46402797 0.54807776 0.084343776 0.37132585 0.43951154 0.53942 0.23408948 -0.22541463 0.5063298 0.041067805 -0.05497001 0.3702035 0.41339993 0.1933637 0.35804367 0.60231733 0.41739607 0.44799393 0.41722965 0.4167022 0.35738218 0.41202152 0.28210497 0.2661488 -0.09747533 -0.08236272 -0.16393778 -0.29500163 0.35506463 0.39959687 0.38530475 0.4531417 0.1203554 0.079142444 0.3104443 0.3102998 0.13739851 -0.009710297 -0.08372909 0.27624312 0.36865094 0.27404857 0.35746357 0.35845482 0.38542426 0.21890765 0.20643023 0.08483584 -0.104516864 -0.16728319 0.42432582 0.42160103 0.40696442 0.39156044 0.48963964 0.41069773 0.44709694 0.4096548 0.24912298 0.18079035 0.21597254 0.5941566 0.6100142 0.5999651 0.39150017 0.7684841 0.6532963 0.46693167 0.5509484 0.7756802 0.5794952 0.68756104 0.7478076 0.763467 0.68080974 0.65572596 0.61623955 0.658271 0.6713915 0.63946855 0.5976459 0.50174 0.6071381 0.5797118 0.41625604 0.30700326 0.43048853 0.41874152 0.21530695 0.19723478 0.51453996 0.5371727 0.5281419 0.2933947 0.30003825 0.26154107 0.17746681 -0.06479489 -0.20731433 -0.1139715 -0.16766712 0.4076576 0.50234735 0.5304927 0.51178586 0.22176698 0.27391183 -0.05345445 -0.30634004 -0.24370995 0.43251517 0.32800618 0.21202812 0.2877106 0.35705984 0.42602217 0.3834139 0.327695 0.45315808 0.30681401 0.39727437 0.4024037 0.43179023 0.37007242 0.36503628 0.3132498 0.029333571 0.17125961 -0.0092784595 0.02755329 0.20141307 0.033239223 0.06057004 -0.22939113 -0.18662854 -0.07684481 0.11127871 0.107969835 0.09420809 0.10651414 0.17684989 0.038064666 0.41555685 0.24519831 0.15150982 0.26916766 0.6098033 0.49295765 0.33084953 0.66791356 0.6055297 0.56274873 0.40472007 0.47568268 -0.047660857 -0.16985679 -0.14255577 -0.22086622 0.37795743 0.5076333 0.5872638 0.5332366 0.500067 0.35362354 0.20674439 -0.06771646 0.1470065 0.2588436 0.40923 0.6147448 0.5239324 -0.116392456 -0.21055499 -0.26962525 0.3338955 0.4368536 0.41103444 -0.031336825 0.51283765 0.4654174 0.1553776 0.54905885 0.64411944 0.6732936 0.6318226 0.57088184 0.37307248 0.686457 0.64273524 0.7905312 0.7441273 0.71397257 0.67809814 0.4714203 0.51697016 0.5545247 0.63710797 0.736767 0.5682323 0.63267887 0.6855645 0.682873 0.6765