# vtk DataFile Version 2.0
Really cool data
ASCII
DATASET POLYDATA
POINTS 3509 float
22.156935 39.344444 2.0799837
22.099514 39.36838 2.5995407
21.969788 39.903076 1.8414366
21.799812 39.82379 2.4614966
21.927902 39.848408 3.2150493
22.233559 39.94463 3.9127166
22.210527 40.40354 1.3478968
21.90799 40.43661 1.6970961
21.628954 40.4706 2.4866483
21.805225 40.540047 3.2598
22.252565 40.544117 4.140655
22.253353 41.008644 1.3695736
22.017874 41.351604 1.8614317
21.800802 41.283394 2.5053043
21.921879 41.306816 3.214609
22.32645 41.235256 4.114249
22.33573 42.162857 1.9756055
22.1656 42.060703 2.5431745
22.244812 41.961002 3.2689054
22.642536 39.330414 1.7034254
22.440779 39.210255 2.575205
22.764965 39.084892 3.195504
22.853209 39.960377 1.199131
22.478912 39.708153 1.573091
22.676022 39.859856 4.5070367
23.10831 39.795 5.0390673
22.472162 40.53981 1.2705497
22.620228 40.45737 4.626266
22.960394 40.617924 5.1281877
22.77719 41.53479 1.2623702
22.479286 41.599968 1.4381288
22.620728 41.43176 4.447972
22.979792 41.32422 5.0692005
22.96452 42.19147 1.3676013
22.69743 42.313095 1.683406
22.552536 42.59839 2.3799405
22.635029 42.438564 3.3115807
22.983797 42.054516 4.293655
23.090551 41.768322 4.812196
22.93431 42.794147 1.9565868
22.912788 42.897705 2.4883118
22.905874 42.80164 3.0293982
24.352253 34.232983 2.8809454
24.239618 34.21787 3.439255
24.262646 34.154186 4.407616
24.121511 34.14526 5.309349
24.26502 34.22244 5.9268913
24.27812 34.93495 2.134296
24.177603 34.800003 2.5218947
24.116198 34.633404 3.3033144
23.720448 35.027298 4.734658
23.913706 34.77989 5.5092845
24.097298 34.73611 6.268206
24.285109 35.584652 1.9350032
24.00001 35.545307 2.6471481
23.79872 35.348 3.5762923
23.630041 35.682564 4.5434356
23.629444 35.618565 5.4598284
23.829308 35.501167 6.0833445
24.408348 36.281963 1.8919673
24.284222 36.792614 2.4258392
23.578796 36.57241 3.903537
23.632832 36.664158 4.423095
23.76831 36.570164 5.327551
23.891901 36.284607 6.2027764
23.666855 38.014698 3.3825128
23.546936 37.145992 4.1335764
23.981598 37.229073 5.374664
24.312618 37.073147 6.2149577
23.50873 39.19934 2.018348
23.486364 38.687546 3.1217804
23.857819 38.518234 5.119513
23.623415 39.370235 1.7132747
23.484167 39.74115 5.329587
24.10462 40.016678 5.8279953
23.449245 40.393105 1.2744789
23.364182 40.96692 5.454556
23.508595 40.725952 5.6277447
23.381735 41.64527 1.1439754
23.515333 41.32231 5.4846964
23.804882 41.263435 5.7275686
23.398117 42.24202 1.2598274
23.484297 42.370792 4.434608
23.508924 41.916317 5.132449
23.434952 42.920006 1.8435667
23.283876 43.072746 2.592235
23.427084 42.916107 3.2616405
25.1603 33.37341 3.2065294
25.275938 33.08501 4.7962875
25.176598 33.03875 5.6107855
25.243996 32.77755 6.421422
25.327055 33.056843 7.4481907
24.75335 34.222244 2.1933863
24.683716 34.03939 2.5620105
24.767555 33.72194 3.387074
24.613441 33.695545 5.619526
24.689228 33.71995 6.1467032
25.021553 33.795628 7.374215
25.23057 33.620663 8.286083
25.375208 33.92271 9.040789
24.766777 34.81997 1.6799349
24.514153 34.328693 2.3952894
25.168915 34.440025 8.565559
25.292255 34.259514 8.896822
25.287252 36.02694 1.0591272
24.548925 35.358494 1.5894307
24.689997 35.514603 7.375126
25.232046 35.30516 8.465678
25.092043 36.665623 1.2257109
24.78219 36.32651 7.204857
25.301626 38.061993 -2.938416
25.259192 38.051033 -2.4200249
25.400007 37.81607 -1.3318436
25.333586 37.951664 -0.38132405
24.9208 37.504486 0.8819169
24.628977 37.98829 1.5943466
24.432 37.011223 6.358982
25.23432 38.58933 -3.2327337
25.123732 38.47274 -2.7536001
25.05436 38.431282 -2.0218108
24.977478 38.545574 -0.22680007
24.963593 38.830612 0.4181997
24.487457 38.14325 5.676455
25.256025 39.176865 -3.2968376
25.151314 39.36337 -2.4803913
25.012 39.383068 -0.99368286
24.484547 39.76035 0.6990987
24.87419 39.46051 6.2868233
25.324001 39.733803 -2.5914333
25.25443 39.88776 -1.0719155
25.216908 40.14635 0.12999615
24.83956 40.95994 0.9223527
24.706104 41.52806 5.869874
24.2293 42.55531 4.7244716
24.158709 42.10695 5.3024945
24.520704 42.94414 2.0870173
24.005756 42.9819 3.1085346
24.716156 42.6109 4.22805
26.236942 28.013838 -9.908606
26.061031 27.975794 -9.341834
26.125805 28.044283 -8.78996
26.065958 28.523108 -9.948059
25.841927 28.561605 -9.391733
25.960407 28.58386 -8.7619705
26.203924 28.707455 -8.355739
26.158846 29.348753 -9.971345
25.936522 29.212769 -9.421879
26.038164 29.240255 -8.779681
26.252502 29.794645 -9.436983
26.236053 32.036716 5.0628257
26.013285 32.036736 5.851963
26.016998 31.94924 6.242431
26.051846 32.074154 7.035366
26.182203 33.14476 2.4083107
25.761353 32.98212 4.9317617
25.543257 32.549175 5.7775197
25.514456 32.500854 6.6061454
25.737774 32.42716 7.0834794
25.708683 32.92488 8.339395
25.779417 33.02813 9.063044
26.400356 33.216473 13.602353
26.307108 33.197193 14.829138
25.484406 33.938606 1.946219
25.451702 33.51876 2.4074492
25.54558 33.298355 8.838094
25.55572 33.521034 9.221134
26.086653 33.62092 9.968083
26.287745 33.785313 11.362654
26.302015 33.7704 12.561622
26.099003 33.801155 13.730656
25.88879 33.906727 14.644579
26.155155 33.73474 15.335018
26.328903 34.517063 12.690659
25.98056 34.542778 13.670759
25.838013 34.335724 14.558781
25.890072 34.44989 15.140401
26.264187 34.384735 15.940959
25.65909 36.185223 0.57054675
26.430454 34.94023 10.994227
26.284864 35.647667 12.836064
26.001966 35.24787 13.929512
25.901514 35.200478 14.516428
26.015871 35.32786 15.092746
25.963392 37.258858 -2.514277
26.195173 36.71484 -1.3898163
26.139362 36.602795 -0.7903363
25.569143 36.823917 0.39205575
25.508862 36.01306 8.261934
26.099674 35.90958 9.330815
26.397226 36.11395 12.901301
26.39461 36.494907 13.471863
26.304583 36.685707 14.422086
26.265308 36.00124 15.522419
26.029442 37.972187 -3.8918934
25.667532 37.81831 -3.1356518
25.740623 37.495598 -2.3528187
25.576511 37.6311 -1.7462361
25.528652 37.268684 -0.30338684
25.568075 36.86112 7.6695824
26.234522 37.340794 8.291872
26.38637 37.200806 14.587921
25.759615 38.674652 -3.9532907
25.444763 38.556168 -3.526208
25.739382 38.50106 7.4407063
25.852995 39.349075 -3.9454958
25.453224 39.48085 -3.454774
25.626005 39.26531 7.1198087
25.977598 39.34094 7.726605
26.122751 39.898834 -3.8499334
25.814451 39.969482 -3.3288865
25.842419 40.309273 -2.5558116
25.746859 40.353565 -1.6780336
25.754526 40.87586 6.687234
26.188925 40.75343 -1.550258
25.91279 40.964928 0.13193975
25.929054 41.151012 0.6076574
25.493425 41.549793 6.332113
25.991804 41.499943 7.066835
26.306232 42.314163 9.027242
26.412249 42.61836 9.933443
24.92828 42.80383 2.553865
25.169386 42.552696 4.673781
26.453592 43.185413 7.0365715
26.217215 43.778877 7.931038
26.047304 43.567665 8.493126
26.089508 43.47114 9.302171
26.220194 43.599552 10.407262
26.436176 43.5209 10.927866
26.34663 44.187656 8.607588
26.227905 44.444916 9.584901
26.270569 44.342384 10.379445
26.410395 44.073254 10.836789
26.31104 45.199356 4.971317
26.28564 45.58357 5.628968
26.362371 45.70816 5.8010273
26.349405 44.82682 9.731874
26.40353 44.839542 10.256258
26.14474 46.667244 4.661307
26.199224 46.611782 5.3050256
26.3796 47.237175 3.8712506
26.218666 47.44156 4.682944
26.324772 47.58637 5.3190427
26.358097 48.23363 4.690883
26.377321 48.2173 5.132158
27.1779 27.170616 -10.009494
26.974361 27.133945 -9.4592905
27.088661 27.13786 -8.78845
26.847176 27.654045 -10.199019
26.444183 27.580864 -9.570225
26.552639 27.665903 -8.689231
26.738861 27.904419 -8.2414055
27.000452 28.557806 -10.831355
26.66198 28.290224 -10.506306
26.40605 28.444647 -8.196344
27.103191 29.435492 -10.929386
26.491434 29.267355 -10.358603
26.398674 29.420773 -8.396818
26.75071 29.473019 -8.293002
27.469814 29.321495 -2.471446
27.211233 30.088057 -10.964417
26.758957 30.176157 -10.075544
26.535475 30.071459 -9.486618
26.54316 29.926435 -8.808603
27.212244 29.961477 -8.229475
27.281687 31.03664 4.8159976
27.149708 31.026628 5.4631205
27.282064 31.052397 -10.053599
27.28986 31.063118 -9.60725
27.24935 30.793695 -8.803665
27.24682 31.788404 2.9991488
26.974228 31.977585 3.1707125
26.359411 32.07438 4.913775
26.348923 31.833214 5.680759
26.497501 31.703005 6.4882345
26.57954 31.84776 7.1926594
27.178614 32.190853 13.62442
27.149086 32.29694 14.848443
26.832664 33.01412 2.1528025
26.665085 32.56567 2.7945082
27.020632 32.94605 10.526973
26.873026 32.806194 11.921876
26.879692 32.71887 12.72776
26.950544 32.425526 13.535791
26.703493 32.72835 14.49148
26.78434 32.87849 15.305246
27.001656 33.009155 15.91002
26.58479 33.49546 11.251879
26.467766 33.35606 15.56768
26.761917 33.519176 16.201094
27.114868 33.895153 16.633167
26.549074 34.43911 16.317583
26.912298 34.778473 16.752554
27.005384 36.25392 -1.1528684
26.561335 35.551777 10.460164
26.755175 35.456608 11.629947
26.59967 35.711334 16.256536
27.207102 35.465416 17.064663
26.51111 37.14219 -3.1004627
26.670979 36.73926 -2.3174598
26.579695 36.685497 9.325568
26.78332 36.332153 9.8746395
26.62121 36.82811 12.874796
26.497604 36.635845 13.3132715
27.004044 36.692238 16.879875
27.38514 38.030098 -5.1901536
26.60985 37.687416 -4.1117606
26.424496 37.32129 8.396975
26.844805 36.965893 8.879019
26.84194 37.342396 12.791445
26.565346 37.525734 13.787551
26.577114 37.309124 14.669371
26.743383 37.673588 15.35346
26.901007 37.48223 16.330507
27.204733 37.191013 17.0777
26.906319 38.4505 -4.715272
26.425888 38.726208 -4.509515
26.423126 38.125637 8.287409
27.161003 38.16457 12.773993
26.886272 38.29525 13.760664
26.788816 38.246876 14.613953
26.934965 38.253136 15.569781
27.145397 38.213467 16.222588
26.285599 39.49758 -4.152402
26.721363 39.270805 8.195755
27.247211 39.08896 13.576393
27.175056 39.06243 14.732454
27.131533 38.96653 15.453389
27.315716 39.003193 16.070812
26.57354 39.98818 -4.0351577
26.777876 40.657215 -3.1881876
26.692575 40.876503 -2.396552
26.44862 40.795387 -1.3874944
27.09026 41.479973 8.885861
27.17986 41.76444 10.607068
27.117676 42.162476 11.201728
27.011946 41.92826 1.5305357
26.765049 42.665726 11.128858
27.06351 43.32189 2.280509
26.675928 43.743843 3.3023732
[...]
POINT_DATA 3509
SCALARS features_00 float 1
LOOKUP_TABLE default
0.65604556 0.66640234 0.72363764 0.7589793 0.74935615 0.62969804 0.70848453 0.76829016 0.8658236 0.80791235 0.5832522 0.72730017 0.7955681 0.865124 0.7936032 0.5956925 0.7573197 0.7767304 0.72343165 0.6039586 0.6068011 0.5471027 0.5948344 0.64836764 0.45860952 0.35522392 0.6777437 0.48148653 0.4328295 0.67594326 0.7249707 0.54215956 0.46971834 0.69230044 0.7327327 0.7459066 0.6797963 0.5550792 0.4962564 0.726666 0.7243456 0.68843746 0.34751713 0.34851426 0.33475423 0.32339033 0.3116879 0.33578274 0.34865886 0.35883084 0.38032448 0.3749349 0.35672605 0.2948143 0.34213024 0.36722505 0.3760268 0.402588 0.39879215 0.2179006 0.20604162 0.29959118 0.32892036 0.3492941 0.34444222 0.101074085 0.25266007 0.25179577 0.20791006 0.42944252 0.3334821 0.12714921 0.4097751 0.30043423 0.240099 0.5201748 0.4107371 0.3756694 0.59288216 0.41639394 0.3781522 0.64508367 0.522053 0.45855278 0.70137936 0.6979778 0.63682747 0.28355014 0.22936283 0.22953962 0.21976116 0.24401183 0.32850188 0.33367044 0.31489938 0.26975894 0.25527823 0.27008766 0.28286248 0.25422356 0.30871934 0.3417144 0.3016596 0.2663898 0.12645718 0.28315407 0.30792224 0.2693282 0.074436866 0.20166883 0.49717784 0.4455828 0.2700639 0.114345066 -0.032424126 -0.069191664 0.19961011 0.5677248 0.52869475 0.44447085 0.1394453 0.031890273 0.035282224 0.6006818 0.5809067 0.39393353 0.14319924 0.057414673 0.57616925 0.37320188 0.16320579 0.22081791 0.31890708 0.47252172 0.42580563 0.64978087 0.6206826 0.48110637 0.8771061 0.94014144 0.94386077 0.87595946 0.9326662 0.92573714 0.87736976 0.7639598 0.8473968 0.82965016 0.70077455 0.1639474 0.18258533 0.18981084 0.2212007 0.21104798 0.20849082 0.20728453 0.21637607 0.23070666 0.25223315 0.22549042 0.4111741 0.49295554 0.276731 0.27768812 0.25302505 0.24366485 0.22863907 0.23597005 0.31319916 0.43752316 0.509428 0.5305088 0.27770606 0.38179323 0.48865622 0.52629733 0.5416385 0.032657854 0.15077946 0.19302297 0.33299834 0.39767006 0.44983867 0.359784 0.22896484 0.14684963 -0.0012828902 0.13627778 0.06355947 0.199873 0.25337788 0.28838727 0.41766992 0.4940927 0.47433862 0.37002155 0.313677 0.06677812 0.058864623 0.006775737 0.29514015 0.5591099 0.5675483 -0.008248523 0.5771139 0.59965634 0.017887456 0.016109735 0.5507233 0.56416476 0.4929648 0.38394958 0.034507964 0.2479137 0.037146118 -0.032034393 0.12736368 -0.050638452 0.45620644 0.5589596 0.57346874 0.3927809 -0.032296248 0.21921188 0.37592596 0.5067751 0.6024637 0.6470849 0.3825031 0.5435976 0.61905086 0.65216184 0.34632245 0.28957915 0.28826845 0.55699694 0.6100275 0.4736771 0.4419555 0.4666332 0.5078161 0.5114887 0.5282223 0.5361084 0.78997123 0.8784308 0.8912914 0.7690645 0.8993254 0.92027605 0.8857975 0.6213981 0.7199645 0.8763559 0.55042887 0.69551337 0.7459184 0.6838462 0.54751176 0.4700365 0.54687464 0.62441134 0.6613441 0.5389986 0.1398097 0.15428902 0.4046409 0.4117003 0.48266748 0.101505466 0.13007908 0.1600895 0.16713212 0.18477201 0.1976244 0.34677905 0.41486835 0.16020635 0.15435621 0.11835586 0.21176901 0.2821954 0.35774177 0.4440954 0.4689901 0.47335625 0.20662406 0.5095745 0.5089976 0.5039109 0.5271528 0.49623942 0.17265251 0.050931595 0.08608951 0.47577044 0.47566128 0.3787215 0.27748948 0.03965512 0.06250327 0.23006581 0.25001508 0.4532051 0.28017068 0.4160675 0.012008719 0.031448394 0.26985797 0.2823512 0.30028883 0.33619404 0.4125692 0.46544325 0.38719007 0.48000944 0.014056161 0.3641401 0.3124671 0.31510752 0.36321872 0.41922808 0.5370349 0.015841782 0.38628834 0.370739 0.39871424 0.44304463 0.49497578 0.41332254 0.2890246 0.15285009 0.30527887 0.5994179 0.6660633 -0.21806988 0.65561986 -0.14514387 -0.0011109859 0.66752315 0.7011658 0.17276771 0.101334274 0.16204852 0.6490456 0.6706425 0.24779697 0.27136514 0.20748538 0.08454496 0.40712804 0.540816 0.60715663 0.65649974 0.285651 0.3326195 0.58137697 0.3613716 0.46757615 0.40706605 0.47695893 0.52888525 0.53047216 0.492181 0.43064463 0.50632274 0.53639245 0.52989054 0.7378359 0.83041775 0.8439864 0.8203334 0.5620322 0.6585818 0.78420544 0.43746105 0.398789 0.4876353 0.53289807 0.57117677 0.50957066 0.47051322 0.37705946 0.46410644 0.4946074 0.45636958 0.5514115 0.50151956 0.43047896 0.26011664 0.4200217 0.42031652 0.40147722 0.5122126 0.4797826 0.44534934 0.13479607 0.16103612 0.17330219 0.15003897 0.32881904 0.29951426 0.38501608 0.43090007 0.3560037 0.28130168 0.08791032 0.040722027 0.042101856 0.06050323 0.24549791 0.31569406 0.35796282 0.37664875 0.23135817 0.2672171 0.18168628 0.2467609 0.253923 0.1017053 0.09408288 0.43264812 0.44011143 -0.10008993 0.4714529 0.2661476 -0.22330473 0.47685194 0.48064673 0.4933162 0.23992175 0.20496613 0.25435942 0.47846672 0.5005533 0.30845016 0.29216063 0.257901 -0.008767083 0.4798776 0.50382394 0.31510204 0.31690848 -0.057021916 0.41606316 0.4719978 0.48148936 0.2961319 0.26961765 0.3022763 -0.05028057 0.47128022 0.46979785 0.4652403 0.2997644 0.48269403 0.486804 0.47752747 0.4657132 0.29862368 -0.03901625 0.6785102 -0.30121458 -0.20764229 0.70967615 -0.080503106 0.6909661 0.7022275 0.017743155 0.10074858 0.5981951 0.65512466 0.46704394 0.57345283 0.5556366 0.6147028 0.13269986 -0.022202536 0.22436371 0.3957141 0.5244355 0.5254075 0.58020985 0.6189424 0.5653149 0.5122721 0.19631743 0.39008957 0.5602269 0.5763507 0.5343346 0.5180746 0.31661138 0.53216887 0.44226474 0.49455285 0.45788923 0.46129793 0.44424546 0.5138589 0.5148085 0.49766198 0.4978305 0.77459764 0.39279604 0.47817618 0.6042478 0.68623435 0.7256683 0.78833556 0.72002614 0.29885644 0.26266137 0.19986044 0.35193175 0.42715326 0.4563546 0.47460702 0.5140202 0.6272978 0.431768 0.36582687 0.32104576 0.26763085 0.2566309 0.35504055 0.39673626 0.4697039 0.49306345 0.3956315 0.2987685 0.2225767 0.3103047 0.36933595 0.3890501 0.460198 0.1669219 0.4264086 0.15122078 0.03441348 0.17722076 0.27485105 0.328106 0.37895447 0.37726557 0.40701395 0.16144183 0.1500022 0.27576232 0.061191306 0.30107832 0.28153133 0.30594626 -0.10635972 0.31126943 0.25148106 -0.121690534 0.008894334 -0.054224323 -0.011658702 0.17116848 0.33718818 0.35271585 0.29677695 0.26692164 0.15333217 0.014308177 0.24080631 0.1505216 0.14345011 0.34374383 0.29177696 0.28182164 0.20347239 0.108872384 0.011724988 0.014540639 -0.021778334 0.121885195 -0.022240356 -0.08612448 0.42152107 0.4639945 0.36145848 0.31812948 0.25647837 0.11176944 0.0126898885 -0.08323175 -0.31840548 0.44195822 0.48275876 0.37652063 0.3274302 0.2722645 -0.017728562 -0.025864318 -0.090203956 -0.07838261 0.4982525 0.44495118 0.36654234 0.2966641 0.22185603 0.14239629 0.22864327 0.09972118 0.095952794 0.5229511 0.238435 0.28325772 -0.12467472 -0.14599347 0.5101223 0.31046242 -0.09450871 0.43704268 0.49139902 0.27663192 -0.09178752 0.45837075 0.22798592 0.07330214 0.017259926 0.43676826 0.4661969 0.4552322 0.43491554 -0.056134705 -0.03110499 0.48490837 0.48079634 0.45546106 -0.03509671 -0.019006183 -0.038460236 -0.07483241 0.65635204 0.3950772 0.3883834 0.26469532 -0.016242858 -0.002876781 -0.021275304 -0.19396107 0.6867268 0.41047084 0.3670221 0.28536642 -0.071677186 -0.27751085 -0.19256917 0.658968 0.39920634 0.38279372 0.3234504 0.37186083 0.44999582 0.4995755 -0.10227056 0.6565569 0.35543966 0.4266175 -0.061829627 -0.04193116 0.22080888 0.37162706 0.37770757 0.4667314 0.46121278 0.4286146 -0.022292346 -0.14495954 -0.04172434 0.41039306 0.47862148 0.5115302 0.53019154 0.519866 0.50183165 0.33552977 0.22093803 0.24918617 0.45598334 0.4638593 0.49997574 0.23024268 0.32001358 0.4118802 0.45507115 0.42441714 0.2874863 0.41226912 0.46754447 0.4229083 0.50182235 0.3446507 0.4571091 0.53416115 0.12543666 0.12126277 0.28304338 0.41433477 0.50566655 0.48994327 0.53587466 0.6109834 0.6743142 0.65887475 0.24531001 0.106040046 0.15873808 0.15764141 0.45049548 0.38593203 0.45370948 0.4938205 0.4114845 0.26378477 0.3160897 0.33342636 0.36406156 0.38981754 0.44174522 0.2394167 0.2543894 0.19558528 0.13546367 0.3387589 0.3713788 0.39256755 0.3983981 0.38239533 0.39147073 0.15013441 0.24159735 0.1682602 0.39136943 0.37377846 0.25416875 0.27449846 0.34349346 0.09064218 -0.2051638 0.16335413 0.25909412 0.28210124 0.31258515 0.2778908 -0.11670447 0.1450595 -0.06743865 0.013816752 0.29601768 0.37331584 0.28879339 0.24810097 -0.17365748 -0.1891273 0.5091841 0.44640547 -0.15031323 0.071007796 0.27818605 0.582546 0.5584107 0.4930135 -0.12844577 -0.24663286 -0.28340852 -0.22943231 0.36424732 0.6486369 0.61366713 -0.09910248 -0.17134902 -0.42447352 0.41176644 0.59428644 0.47952777 0.37593788 0.27852112 0.1779314 -0.029248495 -0.17879057 0.49378532 0.5305501 0.44075477 0.32732713 0.2509727 -0.06749054 0.17805207 0.51475275 0.07855868 -0.18566462 0.47215563 0.15280478 0.44036558 0.4371646 0.08385262 0.114909634 0.32841462 0.3716629 0.015387446 0.01861668 -0.23718877 0.45488584 0.42249662 0.19321854 -0.27703416 0.43821508 0.34324357 0.36866355 0.1803965 0.075284876 0.40120164 0.40150273 0.16337134 0.41715482 0.3958039 0.33515048 0.20216367 -0.37012535 0.41538337 0.42778897 0.3770842 0.3592275 0.35603526 -0.22231543 -0.12415494 0.08729246 0.4641334 0.42245448 0.3925154 0.38527226 0.070780426 0.15634681 0.3686111 0.43457985 0.39792764 0.40932977 0.4088792 -0.0978678 0.12173975 0.0705037 0.16414325 0.38302982 0.37578997 0.37791714 0.32248718 0.30333555 0.105730444 0.20843254 0.22334346 0.065206654 0.19693887 0.22855507 0.17650075 0.3035019 0.3517021 0.35349578 0.30564758 0.35183534 0.45631284 0.5150999 0.31346896 0.2416408 0.24682769 0.33455604 0.5509492 0.536916 0.20369281 0.19739953 0.4825281 0.3901112 0.53204036 0.10618049 0.4314097 0.47426185 0.50950116 0.064330354 0.22694206 0.27719086 0.30800065 0.3701331 0.37230164 0.3166914 -0.22042096 0.015235327 -0.028966881 0.3606068 0.42434683 0.26765496 0.24307296 -0.31387073 0.1760002 0.39364398 0.29757804 0.19180977 0.2686791 0.36966836 0.5040753 -0.12840642 0.43616658 0.57863486 0.4798553 0.30650333 0.5374625 0.556695 0.50083643 0.34325618 0.6091025 0.6611092 0.33397073 0.66433775 0.6251933 0.38954443 0.6415117 0.5930873 0.44616356 0.3259111 0.06816111 0.39552528 0.4042521 -0.026489347 -0.011846088 -0.12887631 0.37500188 0.21112138 0.09313269 -0.030692223 0.20136575 0.097516574 -0.06656617 0.013414204 0.3056977 0.3100503 0.12603463 0.122126415 0.17486511 0.29116523 0.22852927 0.24225436 0.38152635 0.39261675 0.4430942 0.44187608 0.4299764 0.43929243 0.4801836 0.4793432 0.45643014 0.49779627 0.49923825 0.45621544 0.41808066 0.48003858 0.5079589 0.46482003 0.43418366 0.23283274 0.42791903 0.48873466 0.3653714 0.31629723 0.24039993 0.291945 0.32946664 0.32551172 0.396343 0.42725784 0.28565755 0.27941477 0.20058677 -0.0122294575 -0.075625375 0.13071214 0.30897856 0.36808723 0.024635967 0.17246912 0.20094101 0.18399668 0.22722465 0.33685562 0.28072372 0.2710173 0.40090126 0.41543305 0.29624584 0.34803364 0.3348681 0.31263903 0.3170416 0.4199496 0.5115397 0.29308626 0.52667236 0.48454416 0.5585949 0.59734094 0.058445595 0.31383058 0.50239134 0.5564831 0.029288601 0.056668177 0.015529089 -0.05175828 0.23195864 0.49485558 0.022772312 -0.085692234 -0.26299447 0.20041038 0.2156845 0.5266976 0.5158757 0.43461612 0.026275828 0.4051968 0.058564223 0.6186211 0.65229094 0.30601496 0.65035963 0.44845542 0.6134467 0.5350512 0.4861868 0.40418383 0.58559346 0.6323708 0.64817643 0.6338527 0.5797392 0.09236784 0.08953462 0.3751257 0.40208465 0.21876344 0.2655352 0.48475185 0.3295278 0.27057463 0.462847 0.40928957 0.33084297 -0.14296055 0.34601814 0.41619974 0.047367156 0.13592152 0.2524327 0.30865136 0.32156298 0.36318105 0.21710445 0.39629662 0.41981107 0.46897903 0.44268644 0.43084532 0.47839653 0.48399767 0.50901824 0.4942209 0.48560846 0.4691145 0.30989414 0.48903227 0.50007534 0.44370332 0.4544174 0.47115165 0.2386627 0.20457777 0.010098495 0.11373635 0.23425463 0.34104338 0.38911366 0.42159545 0.45040303 -0.08524473 -0.15134063 -0.013385012 0.12286502 0.415605 0.2599352 0.3769914 0.40552115 0.45013922 0.45324206 0.35481733 0.38803375 0.42352098 0.4603003 0.40566325 0.4239338 0.20423275 0.27908063 0.25212735 0.262819 0.19012387 0.2580119 0.66734815 0.66546303 0.19503906 0.47339737 0.39879233 0.57548237 0.6278521 0.6301659 0.07137555 0.061380345 0.061770782 0.5588464 0.10404309 0.05558751 0.061979327 0.40128794 0.09950882 0.28091756 0.5037559 0.565122 0.55594265 0.5012639 -0.025868215 -0.0077977926 0.27610362 0.38604292 0.39693058 0.37953457 0.52942216 0.6256263 0.6748541 0.68835354 0.41717225 0.6492765 0.4526359 0.3784355 0.46213973 0.42541385 0.37559336 0.34008035 0.51018906 -0.020852596 0.5650736 0.38664424 0.2346051 0.5122986 0.31079343 0.52709883 0.39899313 0.49401727 0.4615263 0.3802933 0.43941224 0.47616172 0.3886801 0.26632282 0.28972924 0.32882237 0.24430904 0.33086738 0.33209506 0.37694553 0.35477465 0.3673098 0.395783 0.44416344 0.45520046 0.46117315 0.43983027 0.44886768 0.455261 0.09514057 0.44453683 0.45314685 0.4562185 0.1930283 0.12190715 0.12318187 0.109116964 0.251739 0.30812228 0.39006165 0.43903494 0.45462322 0.33260363 0.09592013 0.21978289 0.5097789 0.32745963 0.09394443 0.37992063 0.5339773 0.35992792 0.26485813 0.22407722 0.46212703 0.52166 0.45706886 0.40918833 0.4774607 0.49505454 0.4316764 0.39703488 0.40981025 0.46339425 0.4943062 0.51421744 0.0883946 0.16429728 0.13302703 0.13433449 0.21212396 0.41657135 -0.0024027526 0.12839061 0.15324232 0.24093255 0.69286776 0.7529459 0.7382399 0.7117636 0.24349582 0.25243914 0.12212606 -0.017170519 0.33393157 0.56737065 0.6681733 0.62276626 0.10640571 0.5277189 0.0905163 0.39917263 0.28310004 0.43855113 0.5432548 0.5231173 0.5069681 0.046408914 -0.10659289 0.38758096 -0.020500913 0.49356252 0.612109 -0.16114452 0.55249214 0.64892125 0.58442396 0.10787788 0.44206417 0.16284248 0.32158846 0.25018576 0.11916773 0.22993542 0.3774706 0.42023832 0.3992048 0.49950963 0.42891368 0.52092135 0.5271527 0.48528868 0.45547688 0.5346523 0.5350281 0.5093163 0.46719593 0.39046916 0.4580689 0.48007557 0.41208422 -0.11095068 0.23334959 0.34721848 0.053894065 0.1445778 0.17834994 0.1669698 0.23998445 0.32639527 0.3376928 0.49277538 0.32265425 0.36174694 0.36774164 0.40403605 -0.059251253 0.38587493 0.42400044 0.42607608 0.03938102 0.3918377 0.54653144 0.6394095 0.22315143 0.6369058 0.5944356 0.39821166 0.62683815 0.59640783 0.5253609 0.46245247 0.4796251 0.5663048 0.4908248 0.46668574 0.45592645 0.42470145 0.38256925 0.5150146 0.5198252 0.5049558 0.44836938 0.42917123 0.4160471 0.4615165 0.5036365 0.51718175 0.20623136 0.55668473 0.43848008 0.263283 0.121049315 0.17333363 0.09700443 0.5192199 0.515603 0.1355775 -0.046943612 0.11205474 0.19307931 0.29071006 0.7492134 0.7901093 0.80715287 0.7492192 0.36063546 0.3849344 0.6749655 0.70092237 0.6340742 0.09767012 0.49458897 0.21572727 0.15882546 0.3145018 0.23408122 0.30038002 0.20327112 0.18995106 0.4232934 0.43902045 0.47309393 0.44323462 0.086296685 -0.059082232 0.405845 0.37964302 0.035843678 0.06411159 0.29395947 0.3090728 0.4738483 -0.18040182 0.21396378 0.41502154 -0.14355373 0.16946478 0.36416864 0.2776577 0.2063218 0.36359337 0.4453415 0.42615402 0.4685158 0.49885875 0.50569034 0.50238967 0.51481193 0.5020193 0.4601298 0.51920015 0.37147665 0.28431207 0.5016443 0.39106098 0.4171483 0.5026337 0.21629739 0.3025029 -0.07627857 0.12341627 0.7517419 0.16182204 0.7753259 0.54675055 -0.092503056 0.24022213 0.20450154 0.8021573 0.7704394 0.5755209 0.24179927 0.8085004 0.7282102 0.6950166 0.1587573 0.2845331 0.6379739 -0.109458275 -0.18458375 0.110402286 0.2724331 -0.16017596 -0.2791798 0.26360345 0.33163387 -0.15298146 -0.2523393 -0.24286611 0.3827489 -0.13071191 0.6645765 0.14434327 0.6777159 0.25529024 0.63499105 0.59712297 0.41913134 0.5567095 0.510952 0.47363126 0.5199431 0.51635224 0.461741 0.4473143 0.41169995 0.34463596 0.4547472 0.48850054 0.5109178 0.24469002 0.2833044 0.0915163 0.22290036 0.22709915 0.18187472 0.63347846 0.63179713 0.3274448 -0.016466 0.17071941 0.394556 0.61271566 0.28107202 0.3526786 0.38033226 0.7611517 0.8113142 0.7991687 0.7516837 0.5798476 0.70929855 0.6774792 0.61822116 0.53447497 0.32312575 0.24625501 0.30123833 0.3651688 0.34915558 0.016555399 -0.16802354 0.23098525 0.3316714 0.2495203 -0.20281711 0.060010567 0.2899457 0.360352 0.32888034 0.094317965 0.3292749 -0.21562144 0.0698374 0.039754543 -0.20105651 -0.043941505 -0.20475368 -0.16978577 -0.103516236 -0.08816484 0.24279729 0.31477308 0.26795965 0.46968156 0.4435137 0.5106223 0.5194579 0.45445243 0.4931965 0.50617075 0.45337903 0.44314834 0.4791787 0.34025067 0.2884164 0.30731577 0.42703292 0.4832609 0.34060013 0.19756362 0.45461577 0.34118682 0.26606718 0.082133345 0.13614231 0.14820464 0.7894668 0.74233454 0.18174693 0.8446453 0.22130391 0.1988694 0.8530151 -0.16088174 0.17277715 0.8418578 -0.35871226 0.82282764 0.7699058 0.68126285 0.55729795 0.39268965 0.11724911 -0.02781929 0.7102078 0.54826427 0.45463812 -0.09825914 0.18802613 -0.0678092 0.40090996 -0.030337378 0.55432093 0.061689008 0.051754653 0.6539459 0.20573261 0.62808186 0.5901422 0.45997077 0.5311971 0.47070488 0.44669563 0.3685745 0.31365162 0.5066232 0.44820204 0.4208641 0.391303 0.31922466 0.39352727 0.49251297 0.5177868 0.5175158 0.7102976 0.6926143 0.6754366 0.63240093 0.6153358 0.56572235 0.4262107 0.40402812 0.466147 0.40003398 0.32751784 0.39885938 0.15166281 0.6154525 0.60987574 0.5835521 0.372756 0.40726203 0.5667474 0.40755534 0.4126726 0.77093875 0.4181821 0.4907953 0.37485594 0.79382044 0.7185699 0.6441562 0.19664752 0.5493659 0.5491098 0.53819346 0.3172511 0.39867002 0.31936723 0.65840286 0.57727104 0.16567543 0.707654 0.5982921 0.48687127 -0.028080076 0.5416756 -0.21127519 0.13617383 0.2909156 0.09761366 0.26599145 -0.21692523 -0.19422793 -0.1469097 -0.097657986 -0.11244574 -0.14350024 0.044516496 0.20456952 -0.035055414 0.41959238 0.5217836 0.5068023 0.38451242 0.41705483 0.5257319 0.53397954 0.41535294 0.51518506 0.4417085 0.2398552 0.3304953 0.3735644 0.22138946 0.13530162 0.24258257 0.30655733 -0.004448563 0.23946941 0.122132696 0.04786267 0.015374482 0.18386132 0.7810658 0.5922407 0.21990862 0.87949 0.2573241 0.23327483 0.8920711 -0.05937028 0.15124664 0.86604273 0.10639141 0.11270273 0.82335854 0.80411047 0.11646552 0.8103347 0.76749074 0.63452226 0.4067055 0.23543808 -0.0111493245 -0.07919574 0.16182397 0.18152864 0.78729546 0.64060557 -0.01340346 -0.0021009818 0.043651383 0.057520125 0.47613412 0.33649796 0.11509567 0.5085583 0.32908416 0.48369926 0.43880528 0.4807704 0.4095295 0.3814084 0.3419609 0.20304808 0.24743879 0.52217 0.46862292 0.5375652 0.53764725 0.5299924 0.7822242 0.76967233 0.75734806 0.7527309 0.73428655 0.6998162 0.7099872 0.69162107 0.61429846 0.5287611 0.64454716 0.5980281 0.4632168 0.45068392 0.5129591 0.4383855 0.32013598 0.580503 0.53193414 0.45315105 0.36389655 0.5085797 0.49285492 0.35319924 0.38386825 0.38581926 0.45285693 0.33583072 0.44078237 0.1480835 0.20624568 0.211514 0.15770684 0.8484669 0.7878269 0.6583304 -0.23658313 0.13127759 0.31862587 0.8233443 0.7679626 -0.07271488 -0.061326127 0.069541335 0.769735 -0.041825585 -0.0093627125 0.7179791 0.6320778 -0.17369157 0.41354027 0.48443678 0.39817497 0.09160284 0.50644463 0.37822196 -0.12225515 0.48194557 -0.01681465 0.08537302 0.030432224 0.5167978 0.3627143 0.472523 0.17376871 0.24539977 0.08479485 -0.0055620335 0.22867575 0.11220492 -0.012613468 -0.06250316 0.029376116 -0.04820027 -0.05224799 -0.15916762 0.011026166 0.052748732 0.1710063 0.6956985 0.4992175 0.1630735 0.67433965 0.24939014 0.8248148 0.641274 0.025914878 0.7964847 -0.123272866 0.8007474 0.8131512 0.19652045 0.8132186 0.82977414 0.41742215 0.15718067 -0.009981662 0.21500376 0.8341594 0.826686 0.7531041 0.70471853 -0.1188206 -0.054825634 0.17463812 0.07986358 0.1529465 0.15821157 0.38844115 0.33495998 0.34968945 0.095419034 0.4997138 0.4344614 0.32582355 0.5448643 0.5257102 0.5026084 0.5501117 0.5539484 0.79877007 0.7774331 0.7980292 0.7922329 0.7601881 0.73830664 0.7620218 0.61470044 0.46570018 0.43034348 0.3858189 0.29177368 0.40927887 0.33563912 0.052879974 0.27858835 0.38311127 0.11122705 0.2883303 0.7414038