# vtk DataFile Version 2.0
Really cool data
ASCII
DATASET POLYDATA
POINTS 4142 float
3.4799256 44.07945 8.445462
3.4491687 44.625217 8.597062
3.4191415 45.439053 12.554154
3.4476793 45.638126 13.499814
3.2118402 46.981358 11.6574745
3.260077 46.675205 12.404751
3.4626114 46.34131 13.321844
3.2780323 47.5876 10.898696
3.0622473 47.248634 11.677017
3.1248586 47.368927 11.980173
3.2914727 47.651264 13.2318535
3.3904362 48.3414 10.863119
3.1785076 48.38714 11.483106
3.1693819 48.09805 12.772929
3.3423412 48.602085 13.313514
3.3038812 48.93253 11.501404
3.2676802 48.95975 12.468825
3.3237107 53.606285 15.749944
3.2792623 53.62968 16.226128
3.3625627 53.925327 17.356197
3.3787827 54.965332 14.095022
3.2177017 54.673225 14.707633
3.006233 54.653988 15.71709
2.8939228 54.76648 16.55097
3.0152643 54.620728 17.170345
3.0736904 55.14802 17.906809
3.248064 55.675877 14.505477
2.8084197 55.697006 15.628429
2.6293573 55.663845 16.51435
2.7664542 55.48358 17.428686
3.0050652 55.571186 17.912464
3.1816835 56.109562 14.922753
2.9562864 56.38683 15.703234
2.6742067 56.388374 16.548065
2.6773553 56.255634 17.251328
2.9241705 56.05889 17.95787
3.149562 56.935833 15.784362
2.9146574 56.90422 16.53043
2.9574885 56.99842 17.147148
3.217492 56.809097 17.848986
4.380584 40.262703 5.140737
4.280237 41.020466 4.1612806
4.1816306 40.74514 4.7486157
4.2391067 40.55 5.5405016
4.1243362 40.856964 6.181808
4.2846684 41.67564 4.0171824
3.9847155 41.524124 4.6931205
3.8727417 41.502544 5.4849706
3.992408 41.423508 6.3587255
4.339508 41.312065 6.9163237
4.3670564 42.072254 4.122448
4.2497096 42.352768 4.3587723
3.9374838 42.49218 5.4930687
4.063332 42.209118 6.558553
4.3770866 42.90623 7.9837227
4.202892 42.886692 8.759525
4.2271924 42.726147 9.628901
4.191054 42.72614 10.623644
4.2496805 42.66836 11.539609
4.288947 43.155327 12.698436
4.300193 42.981792 13.402085
4.3640046 43.17215 4.7053566
4.3982315 43.743282 5.26651
3.7038248 43.96747 7.926355
3.561895 43.832024 8.436686
3.7312498 43.636868 9.551869
3.7983131 43.516766 10.450615
3.9819927 43.340557 11.677586
3.7966752 43.794167 12.609113
3.852589 43.875607 13.335047
4.0413303 43.958824 14.277911
4.3838444 44.097504 15.443887
4.4583645 43.960735 4.76302
3.589719 44.313625 8.102424
3.5422838 44.60486 8.507178
3.5332978 44.428955 9.052239
3.7505007 44.615154 11.620359
3.6445832 44.74849 12.332113
3.568961 44.59841 13.280885
3.8923032 44.414776 14.315516
4.2302537 44.395103 15.33882
4.325668 44.857525 15.973486
3.718289 44.92439 7.850962
3.6726224 45.232246 8.7671385
3.8369732 45.295807 9.520449
3.7171164 45.35838 11.574896
3.5197353 45.229156 13.509165
3.6621199 45.44453 14.179944
3.9791389 45.420742 15.234891
4.319016 45.424877 16.118324
3.8241038 46.740135 10.404013
3.5714207 46.480003 13.709514
4.0628395 46.63726 14.825899
4.037191 46.02159 15.327402
4.298827 46.611904 16.47667
4.330622 46.98348 17.634392
4.393232 46.92138 18.030209
3.8749893 47.611855 10.232487
3.6767368 47.748077 13.741463
3.8812823 47.632687 14.38263
4.2777643 47.53994 15.561321
4.285458 47.803757 17.642832
4.3356886 47.70753 18.397856
3.7650228 48.422844 10.218308
3.6645453 48.546467 10.530967
3.783503 48.485657 14.350233
4.426653 48.35249 16.71924
4.3074927 48.30009 17.60102
4.3559165 48.42286 18.368536
4.452304 48.010403 18.971197
3.9967582 49.02317 10.419895
3.5733802 49.481876 11.669744
4.314273 49.279003 14.923751
4.1791024 49.96879 10.929257
3.6872182 50.027565 11.630541
3.6628845 50.64346 12.479107
3.8875406 50.49962 13.776521
4.185453 50.33544 14.229629
3.883103 51.140537 11.774022
3.7087123 51.467804 12.499312
4.034559 51.57024 13.801731
4.279349 51.32153 14.178478
4.030634 52.002064 11.830472
3.909142 52.48267 12.5999975
3.770439 52.61013 13.012847
3.9550037 52.492126 14.29938
3.6255019 52.87257 16.673841
3.74563 52.77521 16.913496
4.0373387 53.859283 11.746617
3.813471 53.561745 12.517343
3.700116 53.71184 13.645464
3.5714498 53.569496 14.746006
3.8471298 53.23284 15.271058
3.5647972 53.585495 17.38016
3.70888 53.89662 17.817533
4.1064014 54.552956 11.843459
3.8016796 54.616245 12.772068
3.6953444 54.3554 13.43848
3.5635436 54.229 17.639122
3.764196 54.551224 18.204182
4.398047 55.569313 8.609558
4.330634 55.526253 12.15251
3.9049811 55.011818 12.877443
3.664502 55.08867 13.3017
3.4415066 55.574753 18.507332
3.844239 55.818825 18.883049
4.34525 56.676872 7.79337
4.345173 56.479202 8.488163
3.6918654 55.98872 13.888918
3.518095 56.628952 14.779879
3.5372317 56.05402 18.644285
4.402701 56.785915 20.263964
4.3867674 57.333485 7.6388507
4.374666 57.416348 8.120217
3.9031725 56.98509 14.084486
3.8560526 57.335777 14.749565
3.5681982 57.369236 15.531622
3.3838093 57.48485 16.556295
3.5530105 57.50229 17.76501
3.6476681 57.209187 18.279446
4.2283697 57.44165 19.515566
4.0763254 57.882484 14.937571
4.4472795 59.177513 18.530094
5.233041 39.180145 5.403043
5.272127 39.122242 6.1311812
4.8706713 39.82858 4.8023777
4.9162073 39.537857 5.5454726
4.815888 39.837013 6.169857
5.2144513 39.878353 7.0126276
4.7343817 40.709167 3.9784994
4.4618206 40.46792 4.3800225
4.451458 40.357998 6.2435317
4.9375057 40.529903 7.171814
5.384739 40.851227 8.222218
5.4034505 41.179108 11.1691
5.287542 41.15914 12.68854
5.018772 41.30297 3.618197
4.919546 42.037464 8.515713
4.6176004 42.264275 9.771942
4.751036 41.90035 11.251032
4.944115 41.601974 12.5568905
5.0422015 41.756958 13.152577
4.9611216 42.371693 3.655486
4.513278 42.45093 11.619614
4.588701 42.516182 12.842504
4.587788 42.564953 13.17617
4.8712473 42.662342 14.161961
5.2340307 43.192406 16.278801
4.947435 43.2279 3.87329
4.5662956 43.674877 4.265399
4.747446 43.494247 14.722341
4.85095 43.32799 15.564343
5.025065 43.730507 16.46796
5.2684793 43.9532 17.230879
5.12999 44.658188 3.497055
4.6392665 44.20379 4.6817307
4.509905 43.990303 5.451151
4.696789 44.494865 16.308739
4.96994 44.646534 17.212063
5.279997 44.988567 18.019272
5.406431 45.846745 -4.9273524
5.327428 45.939438 -4.3481555
5.333012 45.891376 2.2287908
5.164014 45.60685 2.684074
5.0189395 45.28509 3.2794957
4.9169025 45.583405 4.3499823
5.264173 45.3672 5.169135
5.1004424 45.132343 7.139866
4.5396924 45.40534 7.5306582
4.5084534 45.532085 16.532135
4.645213 45.664272 17.06695
4.9038653 45.874657 17.881832
5.284022 46.731724 -5.325908
5.091641 46.627636 -4.440695
5.2395134 46.544132 -3.8946018
5.317617 46.48168 2.207172
5.004597 46.532074 2.772227
4.857086 46.375874 3.4685578
5.010547 46.343243 4.285411
5.14752 46.74133 4.856844
5.1817126 45.645298 7.2416177
4.482102 45.926838 9.040547
4.6137853 46.361828 17.24829
4.599594 46.86891 18.538317
4.9988604 46.826256 19.402561
5.281289 46.920227 19.899624
5.221209 47.83103 -5.7731614
5.131587 47.51881 -5.390778
4.9268675 47.5589 -4.436142
5.2035627 47.50245 -3.638347
5.0803657 46.916386 2.7845159
5.1893506 47.284092 3.5288746
5.1845794 47.138317 4.3112383
4.5235963 47.198635 18.684156
4.730364 47.63002 19.292997
5.1209626 47.53005 19.975288
5.14746 48.42846 -5.3244696
4.9946675 48.407795 -4.523656
5.1137414 48.38412 -3.792317
4.665251 48.502132 9.737259
4.4852157 48.202065 16.56748
4.6508527 48.893795 18.706518
4.759573 48.53637 19.270163
5.0547943 48.404015 19.832315
5.2198734 48.907497 -4.5183215
5.2320566 48.774822 -4.049386
4.610663 49.17088 10.109062
4.5572343 49.650528 10.421002
4.5483613 48.924328 15.503381
4.5551434 49.4438 17.921865
4.610112 49.302254 18.599773
4.944553 49.460453 19.21482
5.4682703 50.57602 3.7343318
5.4227 50.773346 4.561822
5.3627768 50.978218 6.7729006
4.573489 50.327404 10.85083
5.037199 50.43642 16.79732
4.88746 50.401844 17.961123
4.936509 50.63264 18.33692
5.0505123 50.059864 19.111588
5.3130794 51.162056 4.0608435
5.3544054 51.46533 6.5633554
5.41651 51.180668 7.2574186
4.5979996 51.59266 10.936424
4.584944 51.81758 16.698847
4.8277397 51.680782 17.352509
4.923663 50.805492 18.299795
5.3782043 52.59353 5.676992
5.3157196 52.80896 6.2198925
5.4114137 52.480186 7.0205555
4.5643454 52.61853 11.133853
4.502376 52.461754 17.599373
5.3756847 53.667503 5.301236
5.2030935 53.317307 6.260252
5.4552965 53.694542 7.247515
5.317313 54.118774 8.314785
4.2592397 53.480103 17.974743
5.2667236 54.35507 5.80766
5.254907 54.075226 6.2120023
4.986742 54.801838 7.698153
4.568363 55.04341 8.41762
4.6049814 54.90594 9.200456
4.9547596 54.897175 10.677469
4.3493953 54.73475 18.545305
5.167374 55.35945 19.596207
5.0345793 55.41494 7.0488334
4.65483 55.3636 7.9409623
4.478982 55.436142 8.383201
4.803011 55.63999 19.334745
5.067899 55.840916 20.199738
5.229148 56.1125 21.06463
4.6486087 56.420883 9.556598
5.079702 56.3228 10.336487
4.645128 56.559658 20.587677
4.9896975 56.718426 21.235361
4.780238 57.43909 6.9336305
4.5364165 57.625008 7.3718066
4.7207737 57.70339 9.100537
5.0709777 57.301254 9.898405
4.5617785 57.509758 20.538599
5.0187054 57.367676 21.280794
4.9398985 58.022503 7.0740075
4.83782 58.142826 7.5217915
4.815502 58.16534 8.31711
5.1111274 58.00436 9.203925
4.67214 58.32911 14.524435
4.9113383 58.531982 16.428225
4.54882 58.268967 19.823696
4.831976 58.26408 20.44528
5.0335455 58.037357 20.989
5.2232842 58.694073 8.058257
4.955613 58.651638 14.555899
5.25185 59.594902 16.970934
4.7652225 59.15099 17.453989
4.652936 59.412025 18.69389
4.8327103 59.330086 19.340351
5.2049694 59.302418 19.90762
4.97441 59.80745 18.00326
4.979438 59.883057 18.521631
5.0295954 59.80408 19.047897
5.83561 39.105423 4.7810903
5.73172 38.775772 5.6013346
5.77587 38.728127 6.040995
5.929487 38.993164 7.1963363
6.3377156 38.751026 8.428128
6.321587 39.062466 9.944496
6.3951354 38.846127 10.577487
5.501495 39.925255 4.1471663
5.47434 39.51957 4.516641
6.1872253 39.94978 9.021487
6.363781 39.31931 10.513074
6.057492 39.71346 11.444056
6.235305 39.89972 12.514679
5.7249103 41.189594 9.627924
5.76133 40.64776 10.548055
5.4968596 41.000065 12.63999
5.7142043 40.991074 13.10455
6.1103177 41.30577 13.942653
5.989008 41.867817 3.4526756
5.434893 41.502728 9.931698
5.688719 41.818043 14.183708
5.902018 42.085712 15.209133
5.6748676 42.47736 3.63999
5.858612 42.57642 16.137577
[...]
POINT_DATA 4142
SCALARS features_00 float 1
LOOKUP_TABLE default
0.33014843 0.35671598 0.21670842 0.20619443 0.32172018 0.24232277 0.19389059 0.39287037 0.35102886 0.3381341 0.22751275 0.37885606 0.39833057 0.31042272 0.2471194 0.3673296 0.35893315 0.32471478 0.36389968 0.36629832 0.22165614 0.26568606 0.3948927 0.46784967 0.42808533 0.41677094 0.27380994 0.40997788 0.5285196 0.49233085 0.45405465 0.31383723 0.3946063 0.5090412 0.5412224 0.4921475 0.37978697 0.4747618 0.51862395 0.5096369 0.53908134 0.60230225 0.5841339 0.5223868 0.4599951 0.5752257 0.5871057 0.5621487 0.42960882 0.296856 0.54105794 0.5085761 0.47259218 0.3279512 0.17283076 0.1972096 0.16455966 0.15026876 0.1659891 0.19748762 0.19664058 0.38731563 0.24013954 0.3412378 0.30922747 0.27719623 0.20446278 0.1865688 0.22253257 0.22887385 0.22291666 0.19106464 0.24003093 0.36028302 0.35908163 0.34068835 0.21284962 0.23326777 0.2388437 0.22774237 0.19537365 0.16475533 0.36698872 0.35787675 0.3087938 0.19468905 0.22222158 0.20534304 0.17996731 0.1468189 0.26609257 0.17263696 0.11736198 0.14609902 0.1347403 0.2546218 0.2878549 0.34897816 0.16388005 0.09784457 0.04333604 0.30012536 0.36555603 0.34265235 0.34856635 0.0868417 0.17213179 0.3048758 0.3755514 0.41664264 0.30977774 0.31505817 0.0106868185 0.2317974 0.25896156 0.24724677 0.172772 0.09995862 0.18451247 0.20764422 0.12777683 0.0862476 0.16926369 0.16075736 0.13898459 0.058883823 0.29463333 0.27989405 0.084104694 0.11202759 0.12969267 0.18717779 0.21057826 0.33550546 0.32809708 0.078605995 0.12264125 0.14779904 0.36044714 0.3268606 0.31305802 0.099741176 0.13742675 0.16432244 0.38714445 0.36710298 0.54865366 0.50756365 0.21608058 0.2964945 0.41388384 0.5703783 0.6285813 0.62424034 0.2484163 0.28842497 0.32305452 0.41007626 0.455168 0.4462412 0.46487325 0.28243652 0.4849921 0.4708777 0.41082376 0.5280181 0.48145205 0.43466046 0.30584377 0.58312976 0.5816853 0.4403414 0.26978537 -0.009223793 0.12296907 0.1598534 0.53473353 0.0075279474 0.09490114 0.14223601 0.17056273 0.16537124 0.46830642 0.1627432 0.18068054 0.18228033 0.18350098 0.16629134 0.36885938 0.2977386 0.19967136 0.18447834 0.15948462 0.13285336 0.2745447 0.2135759 0.1586656 0.15808839 0.1420728 0.14123689 0.6631614 0.6612401 0.3322759 0.34905422 0.33715057 0.27790692 0.1295298 0.27239764 0.35419852 0.13819245 0.14274794 0.19033682 0.686881 0.69620293 0.64298564 0.34810662 0.39292592 0.3921229 0.30520836 0.20912856 0.2076084 0.29468462 0.17876217 0.32660574 0.3748346 0.39631784 0.7081878 0.7261411 0.7169895 0.61114717 0.3933895 0.349109 0.26364902 0.3626184 0.43120897 0.4607587 0.70873 0.6648929 0.5827725 0.28098238 0.14864588 0.40246582 0.44374433 0.4756183 0.62710136 0.58960646 0.2487845 0.21225964 -0.021863356 0.31345323 0.3855175 0.42196476 0.10745458 0.10257988 0.09326574 0.1411083 0.030664794 0.27916205 0.3184348 0.39758143 0.13900083 0.12392586 0.06416604 0.080263205 0.071930185 0.0067329556 0.29423386 0.19835009 0.17027058 0.10894345 0.094852835 0.19327006 0.2623099 0.17474361 0.08259691 0.031709086 0.2703788 0.268843 0.20149532 0.15972546 0.19936901 0.16952927 0.083641775 0.2626956 0.3642953 0.28893816 0.26459378 0.282358 0.3520227 0.51019084 0.6620488 0.42280412 0.26333737 0.62327874 0.72197115 0.60538065 0.6340384 0.54655015 0.3641865 0.6711029 0.7391852 0.61617005 0.63692 0.63419026 0.5299905 0.24090281 0.26788342 0.5402266 0.6275357 0.6908854 0.6258099 0.21159597 0.40820748 0.42028743 0.5235913 0.55522853 0.58057845 0.51676774 0.54518616 0.5631534 0.45830458 0.4257906 0.39215818 0.27227038 0.1604121 0.15626985 0.17726585 0.5217759 0.5007118 0.036572494 0.15208192 0.15140632 0.14129035 -0.029159935 0.059978396 0.15463886 0.1362859 0.09898795 0.36282444 0.021023855 0.13542357 0.14885126 0.38277945 0.16232051 0.141186 0.26668322 0.19353253 0.15093288 0.12463581 0.113760926 0.6355043 0.63744295 0.5662695 0.25780064 0.25861275 0.61381817 0.6488887 0.65155387 0.5664351 0.4624088 0.2740272 0.12188485 0.20174149 0.21933115 0.6301722 0.664375 0.50563943 0.1275017 0.063933596 0.29494715 0.062916145 0.32141876 0.36864156 0.63956726 0.6746479 0.49783224 0.16952455 0.101769924 -0.07511495 -0.09761584 0.45525122 0.6696345 0.52270913 0.34844837 0.07441388 0.028935729 0.22855139 0.27279472 0.09697762 0.0025344715 -0.057443447 -0.038460247 0.16329004 0.47932923 0.6411934 0.64290243 0.6008233 0.5387914 0.47358614 0.2528372 0.13367735 0.14127904 -0.013394892 0.04448441 0.00022839732 -0.07483143 0.4161527 0.42959243 0.5832978 0.557468 0.39984268 0.31995556 0.087024465 -0.0682085 -0.35933238 0.39910576 0.3920241 0.48711988 0.43753725 0.3511027 0.2694638 -0.087355725 -0.13578695 0.33454877 0.3729146 0.49549675 0.46737295 0.3643211 0.19496523 0.20626295 0.0789251 0.006712556 -0.31051567 0.4436726 0.33232945 0.22540317 -0.03986088 -0.17777684 0.13843551 0.2216274 0.24296696 0.6700607 0.39250064 0.11314565 0.72399485 0.72918737 0.4639421 0.5195609 0.10584319 0.7305353 0.7357447 0.57536715 0.6120557 0.28572285 0.04975869 0.15000099 0.6668322 0.5893166 0.5793925 0.13978313 0.157924 0.5777559 0.58126533 0.6066896 0.3587012 0.45982096 0.54525286 0.5705378 0.30467296 0.2392324 0.1834089 0.15946141 0.17949265 0.17646341 0.36763954 0.39273605 0.19208917 0.18739444 0.1764414 0.36814475 0.14796636 0.10003206 0.32878214 0.09975256 0.029616006 0.39709854 0.08816459 0.089064494 0.5865873 0.5742238 0.5550465 0.28942025 0.33593097 0.45033896 0.48722512 0.11287062 0.3000369 0.405486 0.41207576 0.6015746 0.61296767 0.51995975 0.04791776 0.052696746 0.22446889 0.26794407 0.2851821 0.562696 0.61972886 0.45623064 0.092249475 0.16301718 0.5541554 0.1448727 0.042679727 0.21006921 0.6172598 0.0005322248 0.61483777 0.43406 0.5864971 0.12919255 0.36309585 0.5673554 0.45357466 0.38533852 0.3092353 -0.2917914 0.35705674 0.4561267 0.44393563 0.34033847 0.41973543 0.46097967 0.41263735 0.42520744 0.39026976 0.28053847 0.16045246 0.1910772 0.14451846 0.4281788 0.16957454 0.49322546 0.62330085 0.24247946 0.67136717 0.698542 0.35631654 0.65399414 0.69782645 0.56011313 0.26918092 -0.040268026 0.0388697 0.6322495 0.5267271 0.50264764 0.4405756 0.39360884 0.32584834 0.09322965 0.11566006 0.5302508 0.5581825 0.41611367 0.11315818 0.19335327 0.37533277 0.43365115 0.5350032 0.5403341 0.33753845 0.18806653 0.18666935 0.25262317 0.24070063 0.16437861 0.14761654 0.17589435 0.16138643 0.151384 0.25471234 0.25154927 0.17505978 0.12841667 0.09908772 0.17157008 0.077629045 0.063607104 -0.03511659 0.7032726 0.67318 0.6386784 0.35321113 0.6174154 0.59442675 0.5550297 -0.20217115 0.52240014 0.5066185 -0.10628662 0.42194682 0.5568671 0.53537214 0.14157638 0.031568095 -0.22119445 0.36502367 0.47736531 0.076807685 0.29223284 0.3440939 0.37576753 0.255643 0.16697468 0.50116885 0.12918249 0.40179455 0.33171567 0.029388435 0.23284245 0.32496706 0.31757805 0.23978873 0.33835363 0.33903146 0.35131252 0.3397951 -0.20783702 0.29070783 0.28258467 0.023876943 0.07136258 0.053407796 0.11029434 0.5151282 0.15089953 0.539331 0.19065769 0.39854187 0.34154087 0.5179186 0.43187118 0.4186427 0.36708355 0.34198242 0.27428648 0.1842201 0.009694226 0.47968632 0.43267155 0.37173468 0.33456284 0.28123784 -0.0084581375 0.01558461 0.060085207 0.11317125 0.22995424 0.32320446 0.45453864 0.3075617 0.36877275 0.4355209 0.47946945 0.4982649 0.49724966 0.30168584 0.3797006 0.43179202 0.45830983 0.4700613 0.16013856 0.2955974 0.26610744 0.054731853 0.22122224 0.20322955 0.10873446 0.09294397 0.22505188 0.07612227 0.42512828 0.41303387 0.34621716 0.17151457 0.1617347 0.5155675 0.6997188 0.69034696 0.63500977 0.41545877 0.4112426 0.30640537 0.52673084 0.60251886 0.56707644 0.3592348 0.36634412 0.2923106 0.4858557 0.22444762 0.14088596 0.36433095 0.31649315 -0.060754478 0.30335483 0.20278554 0.1222138 0.22991753 0.20450792 0.22890544 0.079933256 0.25173908 -0.24093638 0.072896674 0.13834353 -0.21794277 0.2115885 0.1391761 -0.23412925 0.25898337 0.0917932 -0.031554796 0.0422391 0.056867644 0.08971385 0.111009136 0.08819318 0.15907839 0.16894937 0.19731027 0.27057815 0.35553628 0.33981946 0.28415862 0.3266344 0.30412334 0.32235605 0.29412562 0.22112904 0.13280764 -0.002316825 -0.026882747 0.24420314 0.4054187 0.12920985 0.2406862 0.27587473 0.49790308 0.5207702 0.36155024 0.42986065 0.4804566 0.5162061 0.48324728 0.28068134 0.43251348 0.022983965 0.61840916 0.09865019 0.044093076 -0.08707477 0.14295109 0.4921593 0.54686105 0.21165383 0.1924912 0.47306675 0.14263211 0.14929134 0.06368797 0.3914349 0.40569407 0.36139005 -0.010442305 0.4997537 0.5638594 0.69241893 0.62335896 0.38565648 0.31339508 0.51421756 0.25261652 0.23217525 0.299595 0.28527334 0.13248107 0.13106549 0.10542785 0.064272344 0.122178316 0.038221702 0.19393617 0.7738687 0.54759985 0.22983578 0.7910438 0.7180433 0.16517712 0.21704537 0.7292748 0.638995 0.47238958 0.39253387 0.1443318 0.6415319 0.59498984 0.4614777 0.28050467 0.020086735 -0.2646765 -0.36793277 -0.3129267 0.55983984 0.47355777 0.34671882 0.2199403 0.24881443 -0.26429686 -0.23010406 -0.11796395 0.3094931 0.379761 0.09578304 -0.15621762 0.14401455 -0.0043978393 0.255833 0.08689591 0.063637525 0.1412723 0.142064 0.038546145 0.18767376 0.16324942 0.19288695 0.07052694 0.18335909 0.20906642 0.23818922 0.19045061 0.17543644 0.25268283 0.26087233 0.24375471 0.25373214 0.2272801 0.074074216 0.063142955 0.23360878 0.3046804 0.3508674 0.42621624 0.5039522 0.55045056 0.39360395 0.48966762 0.5189322 0.48084158 0.23163453 0.37012118 0.49964657 0.46446076 0.4034071 0.17414765 0.31781197 0.66332567 0.7170454 -0.01950167 0.3544039 0.5654613 0.6866667 0.7243432 0.17620349 0.08238245 -0.057507288 0.611997 0.6827928 0.20259196 0.18912941 0.48456874 0.28606752 0.080832735 0.10720715 -0.06063128 0.27273113 0.3248418 0.35663462 -0.20413803 -0.31691316 0.29171112 0.31416512 0.2667298 0.18947117 0.22826633 0.13355274 0.32641515 0.043615438 0.3374312 0.28912425 -0.020543844 0.19301447 0.004647583 0.07622503 0.07283394 0.06920713 0.72835386 0.58322644 0.15434381 0.19474253 0.1434748 0.85141355 0.81063306 0.74192375 0.23023944 0.17222923 0.8569634 0.82855594 0.8248706 0.7849749 0.7638252 0.7084503 -0.24761681 0.64770055 0.5924353 0.48824453 0.23360258 0.42471707 0.42415065 0.3919495 0.36423978 0.41264006 0.31322983 -0.055819847 0.43874085 0.5029983 0.44563997 0.46685115 0.49988467 0.47139463 0.39958912 0.33898532 0.25812632 0.099852815 0.20261392 0.30067602 0.49169236 0.5043142 0.53965765 0.49715978 0.30499053 0.33420265 0.32042977 0.14917375 0.3432021 0.032459363 0.15738037 0.17031635 0.19854197 0.21174975 0.19782084 0.2485126 0.22577924 0.21344353 0.18017435 0.13210005 0.21563292 0.23106234 0.11062328 0.23730427 0.33258298 0.4135273 0.2836726 0.46135253 0.53448194 0.5626002 0.51506263 0.5420867 0.32034084 0.51529634 0.51792055 0.48767966 0.2408038 0.23415168 0.2585566 0.46822244 0.37282753 0.18273757 0.50763166 0.6683166 0.7260542 0.7359219 0.7319044 0.065731205 -0.07856662 0.7144707 0.65951145 -0.07840491 0.111257434 0.51622206 0.25211358 0.16498768 0.14328423 -0.062244177 0.2688135 -0.13681224 0.08286041 0.23514158 0.22425151 0.04770024 -0.06962402 0.24275383 -0.08614018 -0.13565303 0.36432633 0.33666152 0.35916683 0.3790962 0.13793066 0.38639435 0.4690202 0.3290288 0.40335885 0.17859639 0.16110374 0.7135354 0.6561948 0.24597403 0.8489812 0.79591054 0.8806137 0.8565749 0.2500344 0.26967335 0.7871437 0.7279731 0.37269336 0.37885433 0.3916335 0.67746913 0.6224592 0.46397287 0.42646295 0.5685971 0.49200666 0.5228325 0.50723416 0.4387512 0.5395637 0.38294023 0.154493 0.52086544 0.5540298 0.5888455 0.5382785 0.48952526 0.40642318 0.3358179 0.3345549 0.23307623 0.11038487 0.43029833 0.48278046 0.38227344 0.35794783 0.21786864 0.19400944 0.21021435 0.20663211 0.15931778 0.2557431 0.22934562 0.17010458 0.1754455 0.25637758 0.2583958 0.183916 0.19042312 0.18229716 0.25630608 0.14039713 0.339173 0.41423392 0.47945404 0.41256863 0.4721337 0.50725853 0.5331297 0.56594497 0.553287 0.55118096 0.56298614 0.25592178 0.2501361 0.38319415 0.48692662 0.5327879 0.51556987 0.28448477 0.26108882 0.23791866 0.46959642 0.4193933 0.24001792 0.35895994 0.5931952 0.6534257 0.6785233 0.07305411 0.6632041 0.67235184 0.63290423 0.17427403 0.18913993 0.10461998 0.09858833 0.0106995255 0.14288509 0.21353377 0.1858359 0.11491343 0.24693717 0.20211019 0.03856308 -0.04648436 0.31476632 0.2934929 0.016398882 0.14168409 0.51580346 0.3821546 0.35766461 0.31033164 0.434628 0.5645511 0.6235493 0.38196433 0.53416836 0.6171265 0.31399912 0.47787556 0.53828526 0.1849084 0.3799121 0.4885146 0.31082255 0.21736269 0.75107217 0.57386976 -0.0082508065 0.8668403 0.7783108 0.8941962 0.27383584 0.30701256 0.7940367 0.37126815 0.6994004 0.6403691 0.44274032 0.58582497 0.46597344 0.506888 0.52942973 0.55282485 0.12912543 0.10729234 -0.2410818 0.47954625 0.49387866 0.60905373 0.6450025 0.629217 0.54148674 0.38912943 0.1414317 0.34222394 0.3680402 0.35394084 0.25103903 0.1917983 0.42916417 0.45195085 0.3643342 0.37632823 0.37642294 0.15372692 0.06732142 0.14170103 0.20460692 0.15315925 0.15116215 0.26119888 0.26230046 0.19005002 0.22147723 0.24410674 0.20040557 0.45406953 0.5309704 0.49961853 0.5417838 0.57389116 0.58531606 0.5849495 0.55608875 0.5748608 0.23297648 0.20752722 0.25187543 0.5330642 0.14060366 0.2490059 0.22827837 0.26941967 0.44513282 0.44064322 0.17182957 0.361235 0.5329866 0.5952478 0.62579465 0.25377902 0.072381616 0.05693827 0.6185219 0.28678536 0.26722154 0.21407723 -0.07911104 0.47819382 0.069861785 0.07570196 -0.0017843395 0.13431485 0.17836171 0.090071246 -0.089032724 -0.05018592 0.42666972 0.35031474 0.037308402 0.14803378 0.42602113 0.55946493 0.62991637 0.40804964 0.5914372 0.6517878 0.40347978 0.4228608 0.6609609 0.60746014 0.24774432 0.4170674 0.49329847 0.14286354 0.119918376 0.2922517 0.6546809 0.5571847 0.41299686 0.006255904 0.69727445 0.5820309 0.45274124 0.11651306 0.7366405 0.634004 0.21674013 0.7145597 0.6489866 0.31907564 0.60999703 0.48471424 0.37911364 0.4883869 0.061190076 0.4264095 0.5180972 0.5961084 0.17714702 0.37795502 0.62789935 0.65245783 0.626332 0.5220636 0.4501837 0.07068218 0.1731525 0.28501427 0.2407161 -0.044692688 -0.5518375 0.18391281 0.3953646 -0.03863182 -0.02202001 -0.08861783 0.123777114 -0.009577967 0.21869907 0.23621736 0.21809524 0.29770276 0.3931323 0.51026833 0.43835688 0.47399852 0.6042642 0.6045245 0.50876045 0.5653215 0.5981688 0.60718644 0.48337847 0.37253442 0.1260889 0.21674916 0.33140427 0.10126589 0.06424618 0.046363503 0.06672992 0.44171625 0.2734619 0.29176217 0.28184953 0.24795958 0.11232883 -0.054069683 0.5078384 0.30104023 0.2619108 0.25269967 0.20051089 0.13751374 -0.057284113 0.31348568 0.082141005 0.08261174 0.13255611 0.085839 0.07655417 -0.013683833 -0.11746468 0.4155237 -0.13118368 0.59382117 0.63941014 0.44477487 0.43854338 0.6740798 0.44437715 0.6864389 0.39632648 0.57563686 0.31613603 0.30735058 0.11215167 0.44671118 0.18716782 0.05512414 -0.09508734 0.24886458 0.104099974 -0.11543017 0.38703474 0.34535727 0.2500595 0.23720615 0.52284336 0.4617574 0.3121831 0.27656382 0.1997436 0.28043324 0.4547677 0.35300028 0.3518328 0.20568849 0.34937268 0.44388613 0.37773144 0.39717478 -0.4560458 -0.18314075 0.2911899 0.45418346 0.4869481 0.4587885 -0.055901736 0.25548446 0.58406466 0.536241 0.5362948 0.3793717 0.14025947 0.08164218 0.16073227 0.007506132 0.33316678 0.2508812 0.6215303 0.5506915 0.39197946 -0.2236973 0.47062087 -0.023157412 -0.28459892 0.078758046 -0.28878948 0.24396205 0.25349212 0.048494697 0.2803528 0.31243274 0.39198095 0.38030416 0.4397682 0.44967997 0.77454525 0.7468572 0.4449032 0.4707844 0.5060453 0.5604606 0.6074829 0.83316326 0.8644907 0.5412117 0.6557932 0.628028 0.5300722 0.5136144 0.543082 0.55806696 0.52259713 0.38648587 0.43115357 0.42644686 0.3165839 0.11429337 -0.024135137 0.24268669 0.2563279 0.24470961 0.16852376 0.029988231 -0.42473492 0.5533565 0.36998814 0.25936246 0.27018702 0.23020643 -0.26280776 -0.298226 -0.13012606 0.30307585 0.39259428 0.3286111 0.03861899 0.008836511 0.41587704 -0.033253625 -0.06905382 0.44598755 0.027001113 -0.14740536 -0.10309272 0.07504213 0.3338409 -0.1354581 0.42669445 0.52047986 0.41120332 0.20355155 0.6245352 0.43726236 0.40738887 0.36702448 0.3197917 0.5862778 0.3769754 0.30134353 0.27258968 0.4612308 0.21684077 -0.24547271 -0.06463331 0.042053204 -0.1497884 0.088598534 0.12744965 0.098340966 0.277703 0.13945691 0.35980433 0.1077973 0.38196614 0.38265616 0.3737139 0.44742745 0.41173208 0.3537758 -0.6571775 0.0051229745 -0.014406204 0.45197946 0.54227245 0.41192427 0.030632004 0.09415904 -0.33379662 -0.25260884 0.31287172 0.5501026 0.5812188 0.45997363 0.5088037 0.39510185 0.41570544 0.15985222 0.27546984 0.31053275 0.16762482 -0.21362995 -0.19399174 -0.036021087 -0.33742815 0.53900695 0.50500804 0.05611887 -0.27144772 0.1358149 0.0068141036 0.12440074 0.22464044 0.22303008 0.13203461 0.15342407 -0.073343724 0.30198982 0.2775647 0.2547421 0.29206806 0.30931315 0.47780967 0.51224077 0.5836515 0.37878177 0.38457477 0.40329266 0.57938945 0.72817963 0.65939355 0.66340506 0.7723036 0.8717315 0.85360205 0.7829782 0.85730493 0.73100626 0.70298094 0.645848 0.64911723 0.6967587 0.6554105 0.59734404 0.4203955 0.59511733 0.40462226 0.36965108 0.45673612 0.32897615 0.31344283 0.19513169 0.60714203 0.65061855 0.6024697 0.27061626 0.27953637 -0.15333092 0.4544742 0.58886087 0.5548837 0.21111234 0.22086181 0.2529105 0.22160834 0.124837995 -0.5710404 0.17705455 0.409809 0.34512514 0.28517324 0.23237549 -0.50962436 0.26413152 0.41992337 -0.0684509 0.46688062 -0.035968848 0.2455506 0.49945852 0.16962521 0.32845291 0.4677529 0.27798185 0.29599568 0.27193865 -0.19639035 0.003478445 -0.21790257 0.41903278 0.27052617 0.4900785 0.35445243 -0.21068782 -0.0069066286 -0.20720197 -0.1999028 -0.08747614 -0.11299765 0.14308499 0.14161046 0.19883172 0.31699663 0.16192353 0.3898332 0.18060635 0.4438768 0.4752658 0.49703357 0.5119501 0.3676485 0.57756954 0.5779477 0.51988477 -0.104979366 0.0301895 0.18250343 -0.04955941 0.48626494 0.5582558 0.5999669 0.59740216 0.54269433 0.47192395 0.29601645 0.29875815 0.340028 0.2634185 -0.1275483 0.45899367 0.53565234 0.55607 0.5734751 0.54488474 0.43761504 0.42555943 0.43083727 0.32750514 0.26102272 0.018767301 -0.047092758 -0.11424713 0.4810173 0.49949443 0.45209903 0.058964446 -0.022968734 -0.114179924 -0.12903918 -0.19741853 0.281154 0.045843028 0.39898843 0.35755843 0.4272112 0.49169692 0.56821597 0.74603605 0.648732 0.60484076 0.64100623 0.83152324 0.6757988 0.74264103 0.8408462 0.7026782 0.7374451 0.7099285 0.60644376 0.5547582 0.645682 0.53381413 0.3965323 0.5287833 0.29541254 0.36684346 0.2650923 0.2671748 0.27004507 0.13065533 0.48921055 0.6028013 0.6027307 0.5477034 0.2267052 0.245514 0.28618336 -0.034532838 0.39602956 0.49154 0.45296943 0.16900751 0.19719794 0.38449714 0.2944582 0.1917114 0.2219541 0.43079 0.38970277 -0.0879814 0.4741087 0.15944284 0.3138706 0.3434425 0.49208388 0.35659128 0.36237192 0.47072986 0.3355962 0.32900435 0.29734498 0.26495105 0.22222248 -0.08257103 0.11608602 -0.050990604 -0.028763518 -0.12851563 -0.052891478 -0.113795295 0.003435053 -0.17967427 -0.2265105 0.031306494 -0.21605785 0.07314195 -0.098859385 -0.10298386 0.24492791 0.14680031 0.06633644 0.3806264 0.4346006 0.15237537 0.48148423 0.3668229 0.5319833 0.46513477 0.5792796 0.49771816 0.59466004 0.59640056 0.56392366 0.5818301 -0.008143067 -0.2588193 -0.26418552 -0.22984037 0.5364333 0.5867468 0.38424176 0.26146972 0.08793877 -0.105881765 -0.09896504 -0.196839 -0.047702476 0.5737163 0.5600672 0.5499762 0.48105747 0.376772 -0.08609562 -0.10599289 -0.15808189 -0.26258036 0.60945445 0.5616181 0.07551132 0.4369727 0.2580412 0.50806457 0.45960516 0.668104 0.619026 0.54859114 0.5845991 0.618638 0.7737311 0.7667968 0.68181646 0.76660883 0.6680682 0.6607348 0.66026664 0.5975381 0.5223676 0.5922585 0.42292106 0.2832753 0.22428969 0.44138253 0.25881082 0.19621852 0.15627784 0.10568076 0.3555096 0.1672062 0.57331896 0.228396 0.2337937 0.13605891 0.502715 0.45636225 0.4633478 0.2057086 0.23585218 0.37353104 0.12609653 0.24148522 0.23486778 0.14535834 0.366