# vtk DataFile Version 2.0
Really cool data
ASCII
DATASET POLYDATA
POINTS 3369 float
107.31376 36.025196 41.411503
107.37258 36.0459 42.074814
107.27012 36.697624 41.048393
107.20359 36.461834 41.49509
107.28724 36.5189 42.149155
107.36838 37.198147 41.076168
107.28785 37.23665 41.577217
107.33398 37.064625 42.214954
108.00024 35.346203 41.383286
107.74148 35.934097 40.813656
107.63245 35.617332 41.479668
107.66979 35.76723 42.311256
108.019135 35.811558 43.013905
107.807465 36.83938 40.40388
107.5038 36.513123 40.744522
107.50986 36.761383 42.58834
107.86888 36.492188 43.18373
108.271774 36.88642 43.77488
107.898125 37.078304 40.324184
107.69245 37.40384 40.753704
107.475334 37.659153 41.53796
107.57019 37.370792 42.490826
107.99693 37.417934 43.23373
108.314804 37.16805 43.851925
108.05326 38.262558 40.845676
107.806366 38.20044 41.45612
107.93225 38.213017 42.26339
108.061806 37.832867 43.099228
108.22209 38.740322 41.277004
108.22494 38.69967 42.030003
109.39859 31.072172 43.774307
109.40647 31.693613 42.331512
109.276596 31.693895 43.438442
109.3031 31.512072 44.481106
109.37079 31.464827 45.028343
109.483505 32.46953 42.295624
109.218765 32.36024 43.79805
109.258125 32.389988 44.523373
109.43739 32.83406 45.09247
109.376495 33.037132 43.28389
108.2991 35.228485 42.097103
108.85515 35.092606 43.54811
109.200935 34.752144 43.996742
108.68856 35.257133 43.51169
109.03492 35.469723 43.996437
108.59849 36.426643 40.282043
108.73188 36.60512 44.234776
108.57438 37.553223 40.20431
108.73634 37.38358 44.222244
108.78409 38.29522 40.257908
108.53103 38.52118 40.511276
108.30573 38.52305 42.600212
108.56395 38.33305 43.1266
109.00738 37.887684 44.193832
108.77102 38.924454 40.801224
108.708496 39.07112 41.484306
108.76919 38.986786 42.283257
108.734406 38.696915 42.879784
110.21225 30.213015 41.713863
110.1478 30.079895 42.319435
109.95725 30.196407 43.477592
110.05739 30.088667 44.35913
110.27985 29.966145 45.525887
110.18438 31.00682 40.991436
109.971405 30.6413 41.759144
109.72795 30.691402 42.519794
109.59805 30.67127 43.843468
109.59082 30.76126 44.503647
109.72767 30.856028 45.227867
109.95915 31.565603 40.90458
109.68197 31.581303 41.398293
109.48484 31.681526 45.297848
109.95044 31.519047 45.935867
110.10746 32.322742 40.668705
109.63255 32.340324 45.574516
109.92108 32.656105 45.930195
110.093765 32.9998 40.987164
109.895355 33.551094 41.733166
109.72822 33.218018 45.308796
110.0796 34.52413 40.86876
109.70035 34.218903 41.6536
109.71399 34.22124 44.445873
109.99153 34.28318 45.004322
109.92254 35.37073 40.097057
109.646355 35.671295 40.606777
109.526886 35.253906 44.53475
110.1058 35.5767 45.007774
109.45175 36.840477 44.79997
109.709206 37.2693 44.868023
109.25945 38.604378 40.336765
109.67008 37.9192 44.555943
109.51779 37.838223 44.67321
109.28155 39.01035 40.727123
109.34551 39.201397 41.444714
109.44282 38.953438 42.38708
109.3218 38.764046 43.276867
111.33665 28.467049 44.993107
111.02287 28.766726 45.46498
111.099724 28.907114 46.390438
111.299545 29.097029 47.55572
110.51532 29.988657 41.73422
110.63358 29.519487 43.47551
110.600204 29.408176 45.123657
110.579155 29.92578 46.53604
110.92086 29.6428 47.46319
111.18474 29.858503 48.33336
111.03631 31.201239 40.15425
110.748634 30.703133 40.73397
110.48713 30.315306 46.359398
110.66158 30.61808 47.36743
111.4623 30.565802 53.484505
110.90908 31.251425 40.23974
110.3906 31.708195 40.403034
110.80803 31.2159 47.528538
110.782745 30.955574 47.79987
111.313126 33.289055 36.807446
110.569786 32.88422 40.172367
110.636604 32.40259 46.494625
110.61104 31.98935 46.916977
111.11135 33.985542 35.70854
110.96443 33.89252 36.480145
111.03747 33.6733 37.54504
111.02488 33.865658 38.155476
110.80848 33.1676 40.039333
110.801346 33.60439 46.29579
111.27805 34.592205 35.18286
110.85016 34.67987 35.73052
110.67786 34.601162 36.514843
110.71967 34.817097 37.30494
110.83284 34.52362 38.28281
110.56645 34.45609 39.802166
110.46904 34.859024 44.999336
110.86842 34.070282 46.01059
111.237274 35.197605 35.218975
111.00243 35.281242 35.614002
110.83331 35.42824 36.3321
110.9571 35.65718 37.61618
110.62409 35.294056 38.4492
110.56276 35.2389 39.68956
111.188385 35.60237 46.101093
111.315445 36.066483 36.35089
111.04197 36.139347 37.76788
111.0599 36.417522 38.78201
110.29187 36.292645 45.25901
111.29611 36.488613 45.825863
110.25254 37.435745 44.972836
110.10071 38.326405 40.396687
110.48077 38.43011 44.54795
111.15891 38.370747 44.89149
110.10607 38.847828 40.919884
110.53614 38.78951 43.13705
111.749374 28.123802 44.715908
111.89598 27.963379 45.247765
111.73325 29.167242 41.79301
111.62995 28.953415 42.398495
111.81425 28.506607 43.65858
111.53797 28.515066 44.49227
111.56486 28.539574 46.55469
111.63264 28.774204 47.380554
112.181854 28.669504 48.248653
112.20041 29.016674 53.01463
112.07 29.190262 53.249363
112.32077 29.133831 54.244354
111.62434 29.893505 40.965862
111.32003 29.429714 41.870983
111.945 29.402658 49.02342
112.21993 29.529919 50.565056
112.012825 29.714443 51.64365
111.958664 29.487204 52.672737
111.66511 29.911095 53.54552
111.93745 29.715616 54.333824
112.09097 29.931547 54.825817
111.81509 30.380537 49.225254
111.83539 30.913738 51.994434
111.63497 30.497927 52.771732
111.5404 30.478266 53.38144
111.654884 30.540972 54.282585
112.023384 30.567562 55.015507
112.099815 32.399082 37.71563
112.105125 32.28571 38.384968
111.48696 31.355804 48.370586
111.737915 31.077188 49.127666
111.92747 31.115139 51.58548
111.645515 31.162218 52.625484
111.581535 31.38054 53.607967
111.79296 31.418615 54.407665
112.13329 31.415646 55.14893
111.65861 33.304455 36.097553
111.88821 32.818962 36.541996
111.68864 32.831097 37.56911
111.8537 32.43051 38.108837
111.40358 31.9567 47.934113
112.31728 31.871878 50.86445
112.09879 32.25956 51.833553
111.88584 32.361595 52.715218
111.73711 32.15822 53.56204
112.05162 32.5367 54.37347
112.254425 32.205975 55.0403
111.50409 34.036037 35.053127
111.589745 33.456367 35.65084
111.97146 33.713085 47.364307
112.10895 33.373257 53.47435
112.22469 33.346752 54.36063
111.63518 34.557735 34.832386
111.778694 34.345833 47.05506
112.34369 33.86242 52.907707
112.33007 34.192947 53.69417
112.40132 33.91076 54.323494
111.79018 35.454197 34.944523
112.00982 35.399487 47.150375
111.62509 36.071766 35.669617
111.697624 36.30698 36.54775
111.58618 36.452785 37.605686
111.40209 36.512753 46.380787
111.998795 35.984715 46.93938
111.97338 37.068375 38.74301
111.32109 37.397343 39.798775
112.36482 38.000957 49.04282
110.94767 38.25379 40.72171
111.609795 38.545147 46.35992
111.86928 38.50048 47.390663
111.852135 38.673885 48.16158
112.106735 38.51752 49.290604
112.290695 38.95151 50.08654
111.070496 38.72343 41.30036
111.7753 39.326138 42.684628
111.87415 39.030685 45.118263
111.72322 39.570328 46.84226
111.70446 39.386 47.82993
111.726364 39.72601 48.709076
111.89728 39.69948 49.378014
112.1682 39.570133 49.959343
112.40466 40.745686 42.11591
112.171104 39.94807 42.64184
112.17998 40.07642 46.0099
112.029625 40.04737 46.353165
111.93994 40.389103 47.925034
111.8676 40.567028 48.546436
111.94901 40.447105 49.38089
112.16024 40.424313 49.859783
112.12866 41.674385 42.52072
111.79621 41.23402 43.801437
111.78593 41.57701 44.23181
112.005356 41.732395 44.90546
112.272675 41.15554 48.087917
112.050415 41.07404 48.743565
112.22035 41.11877 49.45153
112.2807 42.64763 41.979805
111.66804 42.433655 43.736816
111.68419 42.666813 44.15625
112.087746 42.14634 44.96245
112.2857 43.50415 42.23991
111.938484 43.528446 42.77035
111.730774 43.731365 43.614567
111.84713 43.461025 44.31623
112.408516 44.162296 42.152073
112.08058 44.356213 42.84347
111.95005 44.454197 43.512215
112.02501 44.27575 44.299397
112.10307 43.966286 44.686237
112.23284 44.90956 43.59417
112.150795 44.75837 44.103725
113.21151 24.171999 28.065247
113.05804 24.0877 28.747578
113.16713 23.886969 29.376455
113.32035 24.80986 27.317116
113.04656 24.668293 27.79596
112.71944 24.771347 28.541859
112.83724 24.692986 29.288725
113.28256 24.525652 30.043608
113.26175 25.091726 35.91496
113.32659 24.78986 36.495552
113.39709 24.638226 36.942955
113.27088 25.45899 27.23893
112.87539 25.369272 27.888472
112.65758 25.443521 28.549263
112.75136 25.4514 29.234793
112.999794 25.402449 29.769567
113.257164 25.481358 35.896564
113.149734 25.422132 36.47224
113.29388 25.39417 37.13088
113.08453 26.261982 27.800848
112.88281 26.266785 28.49611
112.98622 26.158136 29.247292
113.30323 26.437681 29.869371
113.330986 26.145348 35.89973
113.33437 26.361256 36.36505
113.03762 26.966253 43.77008
112.863815 26.942642 44.44903
113.04937 26.813139 45.35945
113.15234 26.928778 46.121365
113.385765 26.988995 27.64392
113.31319 27.4592 28.404812
113.366104 27.157238 29.518007
112.98204 27.837492 41.83508
113.03918 27.49452 42.708374
112.57475 27.813856 43.47833
112.59015 27.639042 45.4398
112.85501 27.693136 46.079475
112.85638 28.03388 47.231873
113.16352 28.258097 51.664295
113.04064 28.164148 52.8046
112.95412 28.241302 53.3313
113.43112 28.22752 28.82978
112.65718 28.514235 41.431572
112.57938 28.800713 48.484142
112.94683 28.577532 49.26481
113.126686 28.53227 50.37215
112.70146 28.774597 51.662163
112.56684 28.76197 52.561237
112.70476 28.5214 53.360184
112.716095 28.889296 54.291767
112.59191 29.153109 54.809265
113.256744 30.000168 27.411983
113.32306 30.025509 28.348215
113.04488 29.962353 40.195675
112.594025 29.648329 55.272194
113.23711 29.83368 55.91329
113.041565 30.813187 25.685518
112.90086 30.699808 26.508894
112.88814 30.608778 27.306131
113.07717 30.585379 28.465136
113.16361 30.77066 29.030369
112.21989 30.785536 40.011005
112.45308 30.540781 55.573208
112.82167 30.472984 55.891975
113.23867 31.504301 25.296986
112.982475 31.541542 25.688807
112.7912 31.55849 26.42759
112.88545 31.473198 27.376806
113.00427 31.292074 28.326788
113.21975 31.07776 29.09113
112.96668 32.20914 37.71009
112.7512 31.6147 39.31041
112.56467 31.57324 39.482376
112.87724 31.417313 56.005848
113.12495 32.001915 25.788055
[...]
POINT_DATA 3369
SCALARS features_00 float 1
LOOKUP_TABLE default
0.76267064 0.71867055 0.79351634 0.778943 0.7324873 0.7984239 0.78638595 0.7354473 0.6496872 0.7182188 0.71819866 0.6609347 0.5429139 0.75863373 0.7737869 0.67879057 0.56373245 0.49469584 0.7620798 0.7927857 0.7863184 0.69867086 0.59829557 0.50616527 0.7938005 0.7813857 0.70270205 0.6087357 0.7736366 0.7107791 0.3733005 0.3974168 0.38895363 0.37563413 0.3602119 0.34651256 0.37448066 0.3519354 0.2650903 0.32120562 0.5645574 0.312938 0.14256623 0.36925888 0.2820603 0.62426424 0.3916877 0.72813845 0.45313182 0.729409 0.7698188 0.646628 0.57204896 0.4553601 0.75537866 0.7435816 0.65873617 0.5881591 0.36179602 0.34729388 0.3313047 0.30388469 0.28734314 0.37861276 0.3889019 0.38697943 0.35474256 0.34750754 0.33698624 0.35858005 0.37564296 0.3469742 0.31225032 0.2687478 0.2871124 0.22295055 0.16694827 0.13797379 0.18035738 -0.039335575 0.05223476 0.051908623 0.032173302 -0.060756907 0.10993582 0.14920369 0.10325363 0.30612004 0.30025956 0.6646451 0.35866937 0.36162308 0.6952618 0.70986116 0.6031587 0.5038825 0.21202889 0.23422739 0.26525345 0.30860722 0.33585805 0.26354545 0.2563757 0.3132474 0.34856102 0.3710816 0.28631225 0.34233385 0.30616644 0.316204 0.46550435 0.3075428 0.3303647 0.26984924 0.29489464 0.41374698 0.119285315 0.18561122 0.21128604 0.5389943 0.5165025 0.4113522 0.31126237 0.036021132 0.079187594 0.55359113 0.5907015 0.5694835 0.5015542 0.29702282 -0.120940425 0.014869656 0.034183703 0.57363516 0.59545773 0.5835785 0.45981315 0.30559355 -0.07203603 0.009342121 0.5011373 0.39433092 0.25286984 0.13718987 0.028847296 0.2333389 0.45199996 0.25530273 0.07279383 0.5434253 0.3636733 0.19748047 0.19443698 0.19693631 0.19436395 0.17666376 0.20137432 0.22605772 0.25308543 0.19040474 0.3865666 0.4178661 0.43259248 0.23725247 0.24917933 0.2910229 0.18811518 0.34615606 0.4029837 0.47501448 0.47471088 0.4601472 0.3409776 0.35649186 0.43081227 0.46440494 0.48824602 0.45823166 0.18694949 0.04741069 0.26919135 0.28532317 0.30469647 0.37623256 0.41946685 0.44062442 0.419847 0.41892177 0.32476252 0.3015546 0.15887174 0.16123436 0.13707472 0.25091717 0.3055086 0.35698795 0.34674433 0.37523666 0.5045126 0.45796293 0.03730827 0.28650102 0.31271052 0.51157683 0.03529574 0.2669088 0.29213446 0.30839255 0.53033644 0.023920193 0.5244661 0.4063527 0.29786897 -0.012606827 -0.020342864 0.051714998 0.040818498 0.5094305 0.25169408 0.06926345 0.36445016 0.50660473 0.6123472 0.65708196 0.27958462 -0.08228621 -0.09678294 0.26459187 0.45648825 0.6056866 0.67004037 0.67697144 0.06657027 -0.035604045 0.0556854 0.15797275 0.4930207 0.61655486 0.6962639 0.7053397 0.2489253 0.28548107 0.26723287 0.19624904 0.5697825 0.65636456 0.6946033 0.24075079 0.42486817 0.41838214 0.27661905 0.3400267 0.42808437 0.4799149 0.47061 0.34737253 0.42080972 0.45961207 0.4713652 0.45435622 0.44995588 0.45903152 0.6388674 0.6702994 0.68542176 0.63213575 0.650212 0.6816326 0.66542983 0.5947305 0.56378937 0.5498482 0.5116658 0.6410498 0.6631575 0.656488 0.5989584 0.5236451 0.5637058 0.55727184 0.51231074 0.6045096 0.5533819 0.49235824 0.3728888 0.54066044 0.5216193 0.1664263 0.20098072 0.2346327 0.18911396 0.52510184 0.35711136 0.32221812 0.07435192 0.12084623 0.16131076 0.1836054 0.1387156 0.11009538 0.19529465 0.2751904 0.31703833 0.19534655 0.092931986 0.15167871 0.05596708 0.05026307 0.25538784 0.32175505 0.35229212 0.39245367 0.39582133 0.35889497 0.23079202 -0.0037052408 0.38541895 0.3100015 0.82170486 0.72795534 0.5236267 0.3176284 0.27064455 0.08466636 0.39762384 0.34774524 0.7960195 0.788257 0.7391248 0.6196277 0.47722226 0.31730768 0.053472735 -0.16296838 -0.10385892 0.35435456 0.7418157 0.67647505 0.60579014 0.5496013 0.24167153 0.26635244 -0.054067343 0.054829147 0.36407602 0.36151332 0.32925665 0.24858499 0.38845608 -0.20291033 0.23165473 0.36224446 0.39034918 0.31875515 0.35323521 0.031600483 0.2788404 0.3030681 0.33143312 0.3943441 0.40415174 0.2900717 0.3712329 -0.09355758 0.3171202 0.3454959 0.36075807 0.41396964 0.4499424 0.1356138 0.4168054 0.42861512 0.29800105 0.24239239 -0.004167737 -0.0069896285 0.30097228 0.46810988 0.62290853 0.65260065 0.6391405 -0.11622384 0.6696424 0.6542938 -0.021608155 0.059624944 0.08923504 0.6947165 0.056863517 0.11662087 0.41539043 0.6818185 0.6901288 0.11496538 0.13687263 0.6408067 0.6611972 0.16299856 0.25535437 0.33450183 0.37829122 0.3901279 0.25528085 0.29776102 0.38568962 0.43535668 0.3928852 0.26755744 0.3613959 0.5806634 0.614136 0.69233346 0.69798756 0.589252 0.60525507 0.6292411 0.6931994 0.6799352 0.654891 0.46866798 0.4736809 0.60481524 0.6188579 0.58384585 0.45440954 0.5383354 0.5281409 0.448103 0.31167492 0.38434446 0.49795336 0.51748574 0.5102334 0.6018113 0.3744691 0.4779328 0.54730153 0.44302177 0.2290107 0.46281683 0.46863157 0.47874445 0.57901865 0.25822058 0.20883395 0.43737283 0.5056521 0.473979 0.30129135 0.09630838 0.13468136 0.38903224 0.4105988 0.28009367 0.47793132 0.38414675 0.3728434 0.15238684 -0.16003416 0.069536045 0.023214638 -0.044301383 -0.026501387 0.0047898963 0.15791082 0.18185851 0.2359874 0.16462517 0.11801394 0.27280292 0.1951526 -0.055691272 7.734448e-05 0.31553945 0.34652618 0.7326243 0.58173525 0.12779675 0.09216516 0.045859814 -0.03128746 0.07314245 -0.13088605 0.2982267 0.37927127 0.77993494 0.79847157 0.14709038 0.039902806 -0.02308663 -0.22248308 0.3004874 0.7849524 0.28334525 -0.041734304 0.17043355 0.7500895 0.71928406 0.6451304 0.5436768 0.5136132 0.31423688 0.14733055 0.05023861 0.011494502 0.18407936 0.36865714 0.33032167 0.64584553 0.6333661 0.5567635 0.493858 0.3292107 0.3463604 0.30028495 -0.24751733 -0.016109094 0.4129871 0.39604318 0.3321849 0.34899026 -0.1206696 0.44803053 0.42120415 0.31868064 0.2902196 0.44300082 0.45945084 0.024647772 0.116371736 0.43092114 0.45399696 0.4484694 0.45464686 0.034006916 0.4051239 0.5387913 0.45913547 0.4386396 -0.16462322 -0.21975553 -0.23680884 0.62988394 0.4003086 0.3925303 -0.2188506 -0.34532154 -0.16963708 0.6360814 0.52590996 0.49163568 0.5011372 -0.05020691 0.66434944 0.63815606 0.5642022 0.5573458 0.5518806 0.4559297 -0.012041455 0.054816276 0.62588334 0.6579505 0.57055765 0.5549375 0.55251956 0.0519358 0.099846214 0.522545 0.59980965 0.17716387 0.15575391 0.21552339 0.19946542 0.3849252 0.33275363 0.21280967 0.26810715 0.31027067 0.40101933 0.4555068 0.52591026 0.50688326 0.58464515 0.74453986 0.7501497 0.6955206 0.78764564 0.776737 0.52565813 0.576685 0.4142279 0.4793659 0.5682715 0.5910473 0.53570485 0.56579506 0.63391507 0.6528699 0.6358975 0.20268877 0.3402305 0.20987582 0.33800697 0.42048195 0.49575588 0.5548831 0.55870223 0.5422548 0.27971888 0.37390375 0.24327396 0.34881777 0.41573745 0.51363266 0.5445548 0.447851 0.2526676 0.21802713 0.16940877 0.19803229 0.34750348 0.4914153 0.51959366 0.5001589 0.5387666 0.19585086 0.09514056 0.30226964 0.13695621 0.46361655 0.47502115 0.24237016 0.28821504 0.38530302 0.14585155 0.025072586 0.23043595 0.085572936 0.12159294 0.5189094 0.25399256 -0.056992054 -0.14534007 -0.0020012893 -0.14610855 -0.07859203 -0.10190753 0.30018196 0.38721037 0.32281214 0.42966756 0.4776586 0.61116326 -0.020363677 0.021684144 -0.025967956 -0.20833328 0.42614064 0.4721426 0.6524904 0.6844866 -0.039862543 -0.056969553 -0.4094579 -0.2862029 0.32815695 0.44150686 0.7279242 -0.015266657 -0.13308127 0.31622398 0.7155751 0.6758332 0.28384194 0.61378074 0.5060954 0.40642664 0.32056874 0.25210583 0.3037128 0.39053464 -0.13363 0.4374687 0.40322578 0.17686574 0.3719008 0.41221 0.4126033 0.0069498867 0.43124384 0.42095888 0.39303553 0.25726464 0.51371384 0.41912517 0.35756198 -0.25356063 -0.27350932 0.5737475 0.56212896 0.49855846 0.023242183 -0.24088705 0.5884235 0.5798655 0.10662475 -0.05942603 -0.34039235 0.61218685 0.5720248 0.5691458 0.5502276 0.45703298 0.28308767 -0.0968117 0.00456148 0.05039767 -0.010853227 0.5425689 0.52684796 0.46425247 0.21617606 0.11725612 0.026879542 0.069603704 0.20974019 0.16880055 0.095769264 0.018191619 0.0047017857 0.049601104 0.14776203 0.06825046 0.17797522 0.124578714 0.30816132 0.4113328 0.59992015 0.42311117 0.47054288 0.7124114 0.6482315 0.46114498 0.5545752 0.66217864 0.7817836 0.7559161 0.69820356 0.65296507 0.7709801 0.7612169 0.5710969 0.3232281 0.38458574 0.44803786 0.55973715 0.5939806 0.570178 0.58769786 0.16965842 0.25723705 0.34973675 0.6015119 0.5461674 0.45161307 0.5073451 0.5907307 0.51408625 0.056287248 0.13798814 0.28999507 0.5314523 0.4569862 0.028344829 0.25358248 0.41836637 0.48450205 0.47158986 -0.09540888 -0.049766332 0.28389543 0.48098323 0.43595243 0.30784237 0.41192943 -0.05735424 -0.26994634 0.002931757 0.31980345 0.18636952 0.13063627 0.28812402 0.26443535 -0.08087149 0.32278344 0.03235648 0.07889393 0.090408824 0.11089418 0.17274317 0.34358752 0.3958968 -0.19608365 -0.043934412 0.3908271 0.47091138 0.51858884 0.5336362 0.5214125 0.5955596 0.58421695 0.51918465 0.61178815 -0.24004066 -0.3002386 0.49516064 0.6385623 0.63052845 -0.2654887 0.36538988 0.6459819 0.5340126 0.22916222 0.51264274 0.41788954 0.24076645 -0.0066743568 -0.024489488 0.30012542 -0.21772306 0.3551699 -0.062146064 0.31420466 0.2151522 0.29790962 0.38233244 0.31693017 0.3770705 0.31408772 0.52407765 0.54366994 0.56480384 0.5808977 0.5852087 0.3135907 0.42246947 0.49944705 0.5556296 0.24101554 0.34696764 0.48573458 0.5270883 0.46572113 0.22165665 0.054808453 0.15856439 0.31375915 0.3985719 0.4862255 0.514481 0.17458026 0.17786564 0.068544984 0.16639951 0.32482556 0.4469959 0.46626472 0.18890943 0.18362576 0.027660267 -0.010711752 -0.026209269 0.17608595 0.22578716 0.3142743 -0.07527346 0.04490754 -0.033621542 0.07920794 0.20426182 0.50932467 0.569229 0.4441262 0.44259512 0.69410133 0.6510173 0.45469445 0.60066015 0.723622 0.70873153 0.36646515 0.35813338 0.29275686 0.471425 0.5466554 0.33774292 0.34273264 0.31427673 0.2912899 0.43590584 0.46580404 0.555164 0.5528666 0.48170036 0.17229901 0.20612118 0.5068934 0.28254747 0.4041282 0.4525588 0.4948905 0.29759666 0.37590787 0.32698908 0.046240628 -0.1416437 0.13626616 0.42161006 0.17509869 0.17833094 0.46363282 -0.12538442 0.018446816 0.23277202 0.254575 0.2815312 -0.15895875 0.24900305 0.45380017 0.4416932 0.23370853 -0.43315953 0.12773848 0.32586923 0.34849405 0.3399446 0.1351351 0.41593432 0.20547435 0.16311215 0.25906608 0.38352516 0.47880936 0.48460186 0.5775846 0.6084397 0.491477 0.16797581 0.60348105 0.5470794 0.60441375 0.5917985 0.5869724 0.60071063 0.40501148 0.47379857 0.3410518 0.22691876 0.2567871 0.20164493 0.16016917 0.14861467 0.06031873 0.21170959 0.27480817 0.25358585 0.23696926 0.3672044 0.020620586 0.34229186 0.37648228 0.18660307 -0.22498384 -0.021297768 0.31294027 0.34609038 0.25739563 -0.064941525 -0.077762514 0.09137742 0.22032206 0.3282211 0.46097597 0.10690844 0.5219743 0.41653883 0.4709392 0.5609243 0.47912216 0.49573475 0.52848315 0.5047297 0.520588 0.51255035 0.48387462 0.4119868 0.5350032 0.521709 0.45423257 0.5199041 0.53465736 0.18017206 0.18325418 0.358515 0.40413624 0.47868508 0.4995678 0.14465171 0.067887336 -0.009426281 0.3719455 0.38460636 0.41626668 -0.10897166 -0.06997348 -0.0041909367 0.19776282 0.38776633 0.2297187 0.48896945 0.2523125 0.2424156 0.41002914 0.58306825 0.54493773 0.2778551 0.36895114 0.36034715 0.3179658 0.27403033 0.24208058 0.4525596 0.039832957 0.24872002 0.47992218 0.4214353 0.5146803 0.5675182 -0.06001342 -0.083102345 0.051682375 0.52433515 0.5483365 0.024130732 -0.10798864 -0.13726148 0.4345032 0.029965654 0.03689062 0.20918459 0.1593416 0.13028182 0.55904144 0.5909097 0.5579585 0.5307797 0.094820455 0.11280212 0.35698366 0.4566087 0.4570096 0.506207 0.117475376 0.53637356 0.5802468 0.6677647 0.69697714 0.60345924 0.55923045 0.54799086 0.5116332 0.44841105 0.3222974 0.3062393 0.34343368 0.42329928 0.3779736 0.39128205 0.40095344 0.4045943 0.36497685 0.39899868 0.31722346 0.35223213 0.35553074 0.42809284 0.41895008 0.38789237 0.48591888 0.4631455 0.44017243 0.43179268 0.4759718 0.32646894 0.5160617 0.49534598 0.5081244 0.51153827 0.07017426 0.470572 0.49694332 0.1532301 0.08517385 0.23469825 0.38698667 0.41561604 0.4325448 0.4657451 0.08439737 0.48681575 0.35727614 0.18455294 0.24580899 0.5798675 0.46456832 0.18970738 0.34519976 0.51389927 0.32091585 0.234849 0.3769189 0.37679723 0.3008503 0.22885701 0.22040789 0.28031966 0.37304765 0.41048992 0.11687662 0.34983224 0.29624322 0.20943984 0.19273227 0.5938003 0.6060889 0.643394 0.14462347 -0.051941235 0.019056352 0.12289473 0.17324917 0.50533855 0.58372235 0.6394924 0.6421534 0.11773142 0.09188768 0.5917846 0.066995576 0.06487122 0.47246957 0.043537058 0.031315587 0.26780427 0.5134127 0.6305192 0.5611353 0.5224617 0.05446372 0.3609823 0.46357226 0.40704462 0.5093928 0.5297654 0.54813915 0.6027101 0.6316645 0.6607935 0.6645087 0.6097248 0.35560095 0.5452635 0.44684398 0.27357924 0.46320683 0.39068633 0.30037498 0.47335142 0.5155746 0.3665784 0.48462987 0.41478357 0.42684582 0.40184784 0.43799266 0.43844956 0.44759887 0.41531497 0.39230436 0.16045226 0.29363054 0.3293016 0.41713282 0.35821208 0.3086298 0.41918552 -0.1733791 0.4226135 0.45106345 0.46220857 0.4651688 0.028314821 0.45767102 0.46631676 0.15010905 -0.21730612 0.28098187 0.3742876 0.41235322 0.4461398 0.046609975 0.60594237 0.18581355 0.6359581 0.6234046 0.63015854 0.6141904 0.54827285 0.41263378 0.34640497 0.41389078 0.36213368 0.31106102 0.28049567 0.40081173 0.37384686 0.29011208 0.24856949 0.31894106 0.3689801 0.38332215 0.42234594 0.091923945 0.14764023 0.39464486 0.4452243 0.2790839 0.13845852 0.0497722 0.14767975 0.18144396 0.64262575 0.6757986 0.6906631 0.22620335 -0.01998587 0.5707165 0.69030404 0.6612353 0.076198794 0.5740571 0.06602969 0.05037126 0.44131088 0.16601032 0.08500437 0.26904032 0.16428773 0.15694118 0.43003798 0.5810385 0.4974674 0.47226357 0.14797786 0.25493866 0.29043937 0.41461548 0.28767508 0.18743756 0.42987037 0.53561884 0.5529731 0.6010564 -0.083924346 0.28434289 0.58109224 0.61636496 0.64542574 0.6076944 0.6222493 0.54227054 0.57603765 0.4228024 0.43466932 0.4987846 0.53026795 0.5269004 0.48136243 0.41377646 0.52542394 0.4831545 0.21423805 0.48601428 0.4434417 0.3649643 0.44137165 0.36560193 0.33719486 0.52609473 0.29155594 0.26616728 0.5489589 0.3530671 0.5185626 0.38582325 0.437312 0.4305876 0.45628798 0.45259446 0.46054143 0.47365642 0.3183388 0.32064885 0.08648742 0.20372984 0.3170038 0.8495476 0.7312251 0.45023668 0.04301527 -0.0964088 0.3210258 0.84773564 0.7565584 0.67679435 0.5008139 -0.32727677 -0.13775863 0.32886398 0.36647278 -0.13083741 0.3755014 -0.027928777 0.33467877 0.39259785 0.41268465 -0.22512068 -0.012644954 0.05208969 0.45167485 -0.06563397 0.5903312 0.615557 0.14805236 0.60837233 0.58621705 0.34934923 0.53669816 0.44797957 0.38952735 0.44933432 0.41318315 0.34532523 0.26785892 0.33985752 0.374592 0.3946306 0.18186449 0.23427352 0.52525675 0.4236372 0.016236717 0.12482048 0.2463364 0.49798357 0.5033101 0.22826898 0.3068486 0.6817528 0.7030357 0.70769525 0.3887819 0.38421094 0.6285161 0.69972533 0.64548314 0.028700978 0.14310203 0.5423749 0.12290363 0.06344585 0.38125196 0.17525107 0.27791658 0.17170304 0.2930758 0.45680615 0.16517597 0.1498913 0.2279137 0.3528226 0.36922878 0.3710401 0.12009759 0.25964022 0.108507305 0.054075174 0.4584018 -0.07462625 0.3525086 0.52591586 0.41816795 0.23879553 -0.06807412 -0.044072635 0.48629117 -0.06676239 0.3612861 0.5756411 0.5522488 0.2508455 0.4821192 0.4535042 0.3785304 0.37552556 0.31963354 0.4383896 0.47569785 0.26255244 0.52285683 0.41585025 0.4907745 0.3749322 0.40910068 0.2792897 0.3607083 0.44439188 0.4665859 0.14339268 0.23888898 0.20578119 0.9305601 0.92824244 0.92927045 0.26967725 0.25529265 0.9282982 0.21799043 0.2599846 0.8838283 0.81839955 0.29228264 0.18988085 0.8540276 0.77546 0.682969 0.59405595 0.03660559 -0.22775467 0.7922337 0.69842243 -0.032300755 0.11194572 -0.12319111 0.343617 -0.0049822517 -0.07240397 0.51296294 0.5510568 0.49578536 0.12895906 0.53320485 0.50989294 0.40283477 0.43678167 0.43865752 0.43454167 0.4361628 0.40622357 0.36675102 0.39015675 0.42875576 0.44456315 0.36997068 0.3278802 0.2708855 0.30538213 0.12809683 0.18994349 0.25470337 0.3099885 0.30669534 0.55802935 0.5786846 0.4515257 0.0051135942 0.21349524 0.18237402 0.5117495 0.5345626 0.1833471 0.34680638 0.38991022 0.70256317 0.4307713 0.64215195 0.6669674 0.664271 0.13257451 0.5759039 0.24503246 0.4315251 0.38470244 0.27453822 0.38987052 0.020046756 0.3231793 0.20899567 -0.21604188 0.21053591 0.24009115 0.31340542 0.07700087 0.24325117 -0.024944004 0.16778141 -0.15575878 -0.1807887 -0.09841796 0.52113724 -0.08194533 0.5630119 -0.04206963 0.5356796 0.49262315 0.44027248 0.31539315 0.3881814 0.358406 0.2670185 0.422263 0.19372794 0.15813418 0.41917622 0.22586288 0.18814161 0.34102243 0.37483656 0.32417879 0.31084517 0.26484945 0.14733763 -0.043971553 0.19978279 0.76097214 0.6864691 0.20806456 0.9111256 0.23430917 0.93276787 0.1614819 0.22670725 0.9216391 -0.31637943 -0.2000024 0.8894533 -0.26305157 0.8073516 0.7545419 0.6422281 0.5293343 0.08459771 0.40440714 0.7832183 0.71512914 -0.15659873 0.21565923 0.3146971 0.45986837 0.340922 -0.027411245 0.4413946 0.44545352 0.043728277 0.42759556 0.42130083 0.37873134 0.30596334 0.34998414 0.37385082 0.3349129 0.3348282 0.23167366 0.47652537 0.44920874 0.5081271 0.51504445 0.49942166 0.49094892 0.85795677 0.7706443 0.8784801 0.85492593 0.71572536 0.6386588 0.7767663 0.5903871 0.5319324 0.36847988 0.74369 0.595949 0.35443676 0.32168278 0.28213528 0.5175044 0.54266703 0.13023081 0.17425023 0.30641985 0.5134999 0.4827589 0.35213256 0.3840822 0.42379206 0.37166315 0.32061404 0.22051701 0.056017026 0.4771908 0.46752036 0.47939938 0.6987901 -0.093775034 0.3191378 0.37973106 0.7190324 0.6255114 0.14860477 0.17845248 0.12427761 0.7100183 -0.054317527 0.66821504 0.5519426 -0.16773048 0.26889133 0.10698119 0.07796872 -0.06341751 -0.080261156 -0.2918004 0.31510305 -0.30976158 -0.1659621 -0.096769646 0.44815463 0.38044336 0.029846355 0.46242386 0.36538586 -0.05792646 0.38722867 0.35651845 0.2901836 0.22740754 0.35058382 0.39144754 0.32384458 0.38667032 0.099982254 0.03906339 0.24699923 0.19248456 0.08753601 -0.082082495 0.13130341 0.08621377 0.18695405 0.19719201 0.6288415 0.41914392 0.21204415 0.21252158 0.7585614 0.6649308 0.19786398 0.8107835 0.15359339 0.8646896 0.85412306 0.83249414 0.8162217 0.37533483 -0.13437705 0.391441 0.8164929 0.80666983 0.78416514 0.69525003 0.47700864 0.46937284 0.0894386 -0.07258986 0.28065825 0.4660637 0.48335254 0.24793091 0.10275744 0.35057074 0.22270185 0.25517878 0.28244334 0.10183211 0.4518407 0.3801693 0.3031361 0.503178 0.48058614 0.44005084 0.51406837 0.5390978 0.5265762 0.90644777 0.91329193 0.8069531 0.7199965 0.8715297 0.66743267 0.8057163 0.4550425 0.36860198 0.35027725 0.42775226 0.31667602 0.47455025 0.3975727 0.45833907 0.13575037 0.43570006 0.32688433 0.3359549 0.29086068 0.80668736 0.7095666 0.6286056 0.34671015 0.22654617 0.25160858 0.83329606 0.6905565 0.4679054 -0.21571551 0.8334111 0.8080954 0.046891212 0.05405861 0.81323683 0.7722838 -0.1155251 -0.15722257 0.7425133 0.6357933 -0.21523066 -0.13798092 -0.18875757 -0.16370757 0.13182136 -0.3523648 0.28760642 -0.23203702 -0.102273464 0.35002136 0.31045368 0.16746818 0.19963613 0.21199752 0.11253658 0.21635118 -0.041920118 0.048286133 -0.18583415 -0.12692787 -0.0501772 0.12154426 -0.07893942 -0.1119558 -0.118383 -0.069087826 0.16659322 0.20775236 0.5850349 0.48218325 0.10770813 0.15607801 0.71671224 0.6476102 -0.0011729598 0.73277193 0.68104833 0.7643948 0.74190956 -0.29133576 0.78451294 0.79107493 0.7154272 -0.12205022 0.3643909 0.80865675 0.80732065 0.79771584 0.7662771 0.44610643 0.08594997 0.2511935 0.37870237 0.49247372 0.48012125 0.20889793 -0.016146906 0.1535845 0.08685126 0.002776917 0.011087302 0.39348873 0.37603596 0.38066295 0.44397193 0.5017047 0.48671007 0.4438785 0.4828109 0.5023517 0.51430184 0.8950685 0.91913295 0.82542694 0.7118579 0.82687324 0.8573005 0.60575485 0.4831779 0.7755232 0.35178617 0.31409982 0.32486027 0.29435515 0.30851135 0.3161204 0.17575087 0.23570001 0.05085