# vtk DataFile Version 2.0
Really cool data
ASCII
DATASET POLYDATA
POINTS 4307 float
88.31868 51.054195 55.617035
88.27065 51.652565 55.06303
88.15009 51.645 55.67095
88.22709 51.586517 56.215214
88.354256 52.261036 54.85853
88.25456 52.322834 55.499763
88.2647 52.23521 56.258865
88.37339 52.76902 55.51527
89.40578 37.773483 44.0028
89.42734 37.57764 44.436893
89.41737 37.63324 45.144077
89.47126 37.966076 43.94824
89.41661 38.06583 44.594433
89.26027 39.85237 46.8201
89.20379 39.66649 47.455406
89.18331 39.74744 48.09824
89.404045 39.711525 49.51106
89.191315 40.497574 46.764194
89.01143 40.541107 47.492367
89.08979 40.303288 48.255806
89.253044 40.437267 49.14636
89.35677 40.39187 50.515636
89.29677 40.733208 51.682743
89.352516 40.584377 52.342396
89.22945 40.961304 47.044117
89.09032 40.98543 47.553432
89.27012 40.972595 49.06795
89.37962 41.269226 51.002567
89.233215 41.413284 51.73147
89.333664 41.627453 52.47988
89.37249 41.244614 53.053314
89.20145 41.977917 51.523476
89.3623 42.46442 52.325214
89.43838 44.960854 33.98026
89.41853 44.864365 34.471172
89.44368 44.946037 48.98785
89.35679 44.652405 49.638004
89.22114 44.372105 50.210033
89.23456 44.574394 51.279266
89.415276 45.209396 33.93312
89.39501 45.318913 34.36446
89.36508 45.35199 49.811737
89.26602 45.452118 50.642315
89.25976 45.278603 51.27803
89.423775 46.412376 50.680557
89.43628 47.223747 51.498978
89.49349 48.267696 51.73073
89.27436 48.902706 54.72755
89.372955 48.77342 55.640293
89.23333 48.90526 55.945766
89.40466 49.63932 51.4716
89.1256 50.033344 52.961506
89.27545 49.68656 53.447575
89.086975 49.45292 54.66413
88.90995 49.58055 55.431164
89.17405 49.7935 56.60409
89.11647 50.21084 56.829094
89.340096 50.46985 51.845753
89.09898 50.693768 52.69283
88.947716 50.538754 53.483738
88.65516 50.58615 54.608025
88.52677 50.622395 55.759117
88.77715 50.70119 56.57936
89.03499 51.05396 57.316696
89.20186 51.50437 52.570538
88.779884 51.56152 53.655334
88.512215 51.337933 54.546925
88.51725 51.339863 56.626003
88.71337 51.58406 57.127747
89.24157 52.3645 53.03302
89.040276 52.208782 53.58833
88.50503 52.228226 54.636993
88.66175 52.277077 57.047035
89.34566 52.546673 57.934208
89.189995 52.881317 53.769917
89.007195 53.222157 54.75061
88.62615 53.052147 55.493122
88.7218 52.874012 56.610756
89.13002 53.693535 56.13528
90.06934 36.320312 43.758007
90.09471 36.149773 44.62446
90.0721 36.898254 43.109978
89.88184 36.71248 43.61528
89.72431 36.625984 44.61153
89.89036 36.701233 45.471237
89.993645 36.800735 45.902447
89.96641 37.509388 43.07001
89.675156 37.4566 43.549927
89.55578 37.61418 45.537823
90.211365 37.78212 46.656746
90.33108 38.030216 50.64716
90.015854 38.176403 43.064667
89.67326 38.26898 43.7585
89.55706 38.40208 44.392433
89.54595 38.26859 45.173786
90.0894 38.53491 48.94023
89.644875 39.019127 48.997414
89.99457 38.644974 50.001762
90.14667 38.743668 51.751102
90.124176 38.705727 51.95789
90.134735 38.931637 43.24608
89.95088 39.36629 43.648716
89.78601 39.22829 44.414577
89.762924 39.11548 45.202927
89.48688 39.43137 47.20233
89.542015 39.28195 48.791504
89.62182 39.646667 50.458107
89.66744 39.684353 51.64393
89.77389 39.608578 52.270172
90.168846 39.326923 53.335587
90.35741 39.64414 54.26108
90.160866 39.985016 43.641384
90.236046 40.225464 44.774296
89.54704 40.37618 46.22562
89.3897 40.581127 46.489666
89.47165 40.369473 52.585453
89.650314 40.61043 53.43413
89.95135 40.632347 54.134483
90.41045 40.24975 55.068977
89.97432 41.18136 46.274143
89.58757 41.01159 46.63436
89.57313 41.315704 49.87192
89.61455 41.695778 50.588573
89.51949 41.705723 53.395893
90.00618 41.4955 54.452316
90.300415 41.37199 55.444805
90.13715 41.752945 47.19358
90.06259 42.61 48.017498
90.09471 42.705025 48.745052
89.51552 42.665005 50.53135
89.57217 42.03891 53.232677
89.905525 42.13738 54.377975
90.24515 43.030083 56.249912
90.34938 42.936527 57.107677
89.96462 44.009052 33.795006
90.01441 43.69567 34.53797
90.01836 43.82201 35.149193
90.09643 43.89134 48.0756
89.96147 43.369164 48.88893
89.50496 43.76051 49.72937
90.08873 42.9845 53.39764
90.07069 42.84559 54.053547
90.12931 43.56242 56.40907
90.201385 43.59101 57.512665
90.320015 43.727936 58.285316
89.882774 44.828693 33.235287
89.61792 44.693142 33.70209
89.53669 44.49879 34.572994
89.73144 44.689342 35.29363
90.172455 44.47234 35.7676
90.04585 44.58531 47.82287
89.658295 44.478207 48.533855
90.15036 44.212376 56.05329
90.42159 44.80332 56.226997
90.13052 44.268105 57.722927
90.30545 44.33926 58.26861
90.11027 45.276997 33.018658
89.61581 45.44326 33.59291
89.49929 45.66633 34.483242
89.673676 45.275204 35.196575
90.02557 45.420597 35.69534
89.728134 45.223103 48.61209
89.552704 45.67609 49.63157
90.159485 45.081432 52.41612
90.39277 45.583824 57.378925
90.28201 44.963913 58.076267
90.11757 45.898415 33.148006
89.84784 46.014416 33.697533
89.74138 46.049057 34.394764
89.974846 46.012226 35.182076
90.341965 46.63071 49.08192
89.95383 46.053223 49.251026
89.567764 45.946598 50.364815
89.9172 46.57351 52.54248
90.18125 46.24991 52.75226
90.464355 46.087173 56.629932
89.7941 47.076496 50.1541
89.594345 47.483444 50.74101
89.58478 47.704037 51.650204
89.63742 47.86472 52.38536
90.138405 47.47649 53.25783
89.96454 48.277977 56.226368
90.17905 48.264866 50.115192
89.882385 48.169697 50.47597
89.4885 48.828438 54.016636
89.56838 48.767002 54.468468
89.66815 48.426018 55.56879
89.60406 49.064777 56.55783
89.98253 49.888603 50.27285
89.77328 49.479317 50.58292
89.52681 49.507084 51.331184
89.45328 49.432217 56.498646
90.14896 50.87708 47.691807
90.25987 50.772766 48.461784
89.72856 50.36123 50.639797
89.49251 50.81878 57.57595
90.11534 51.728012 46.84102
89.9231 51.578323 47.576427
90.096725 51.59482 48.44852
90.29701 51.326817 48.925312
90.26772 51.566315 50.766438
89.496994 51.140198 51.82707
89.457146 51.826656 52.377434
90.30244 52.106236 59.13448
90.1483 52.737087 46.13756
89.95152 52.618538 46.611256
89.83322 52.276318 47.44596
90.06705 52.39444 48.47336
90.20077 51.792343 51.31014
89.59352 52.588177 52.745995
89.68299 52.427418 58.222157
90.09991 52.60107 59.49503
90.25075 52.76879 59.88936
90.180176 53.33113 46.074966
89.93103 53.407635 46.61009
89.9077 53.36131 47.297985
90.32589 52.853764 48.883747
90.29588 53.656082 52.333065
89.71938 53.257313 52.92594
89.487816 53.42557 53.492603
89.77215 53.596455 58.26681
90.06878 53.439095 59.4565
90.25972 53.338417 59.9118
90.29795 53.83689 46.258095
90.17342 53.93426 46.59978
90.14274 53.950584 47.223537
90.0895 53.839954 52.797318
89.9848 54.137314 53.40842
89.83028 53.99564 54.34619
89.67562 54.017006 55.30432
89.98057 54.59536 56.95941
89.92342 54.821476 58.11505
90.16185 54.095627 59.354565
90.264114 54.89618 55.812275
90.12826 55.48017 57.577194
90.24329 55.414803 58.06502
90.312035 55.853302 57.415386
91.08753 35.23601 44.056747
91.10344 35.01457 44.619072
90.911865 35.223278 45.304718
90.60946 36.154655 43.267864
90.762825 35.664066 43.748165
90.53225 35.595776 44.457527
90.5047 35.679363 45.09286
91.25276 35.531815 46.661167
90.577515 36.793755 42.907528
90.70431 36.249653 46.447716
91.03065 36.446484 46.896423
91.40245 36.39966 50.381443
91.09225 37.013206 51.148743
91.00406 37.298138 51.893036
90.37851 37.424065 42.763786
90.81631 37.80026 47.38817
90.82966 37.749664 48.426327
90.8014 37.416607 50.0037
90.56362 37.79288 50.44625
90.548454 37.934475 51.65527
91.04378 37.566025 52.22233
90.90845 38.259144 53.260445
90.55671 38.56945 42.84607
90.70795 38.321613 52.502064
90.76605 38.319206 53.080997
90.91578 38.64706 54.181168
91.07775 38.945408 55.055748
90.54628 39.666656 42.950745
90.44508 39.40449 53.66767
90.6522 39.6662 55.21505
91.11125 39.77747 56.279594
91.02072 40.16709 42.99597
90.43582 40.23493 43.61801
90.60407 40.572544 44.26842
90.733185 40.965355 56.290886
91.3689 41.473587 42.13992
90.4846 41.22177 56.124805
90.908195 41.79895 57.177742
90.618256 43.3515 34.002335
90.55075 43.296627 34.42036
90.80799 43.286263 35.053642
91.313675 42.63875 41.11741
91.13284 42.80887 41.629093
91.07709 42.55159 42.396626
91.20652 42.68406 43.175335
90.96436 42.153717 46.8919
90.57357 42.484493 56.491066
90.47327 42.917473 57.768116
90.81786 42.938812 58.46697
91.03603 43.101353 59.06453
90.57194 43.7987 33.258305
90.56994 43.598427 33.65425
90.328316 43.644955 35.25725
90.52713 44.127525 35.818035
90.9618 43.34129 41.453156
90.90206 43.428127 42.451324
91.02369 43.65478 43.264633
91.412674 43.950256 46.488846
90.51647 43.563526 58.683628
90.783585 43.69679 59.112507
90.5663 44.644356 32.850655
90.35927 44.248905 35.796185
91.35172 44.33637 40.83386
91.30852 44.675987 41.67025
90.909676 44.017517 42.119347
91.038445 44.598026 47.011566
91.09112 44.889668 53.158733
90.88828 44.496044 55.07342
90.80651 44.280724 59.180595
90.42216 45.45313 32.870678
90.55253 45.52243 36.044357
90.49872 45.351738 47.49349
90.63297 45.38045 55.807167
90.55836 45.46102 58.253555
90.8001 45.16502 58.85949
90.531136 46.013405 33.04137
90.479614 46.44103 33.736633
90.35245 46.530056 34.516323
90.61776 46.403927 35.299107
91.45213 46.8405 40.09534
91.09376 46.625744 42.603268
91.1154 46.356693 44.24678
91.19063 46.508965 45.454975
91.21426 46.599915 46.32883
90.51374 45.88175 47.906654
90.61946 46.98357 54.10222
90.590904 46.605915 56.74663
90.590485 46.17414 57.59647
90.95879 46.206917 58.37281
90.733635 46.664204 33.83608
90.715385 46.669373 34.441696
90.86526 46.628777 35.13438
91.373405 47.637375 39.918034
91.18482 47.512455 40.645992
91.182594 47.436413 41.42888
91.109505 47.384506 42.599087
91.150154 47.773937 43.4931
91.075935 47.11045 44.608562
91.09048 47.215622 45.30315
91.03747 47.345867 46.196926
91.125114 47.417522 47.343025
90.98405 47.513283 48.704315
90.776505 47.337627 55.585014
90.64334 47.561623 56.178497
91.40601 48.044537 39.99121
91.34363 48.231846 40.6012
91.30777 48.297813 41.6608
91.35049 48.029026 42.289013
91.29478 48.152935 43.533092
91.13222 48.321136 44.51283
91.14375 48.662884 46.242344
90.660645 48.773758 56.801258
91.276245 49.77123 43.979523
[...]
POINT_DATA 4307
SCALARS features_00 float 1
LOOKUP_TABLE default
0.48725805 0.46261448 0.5073117 0.50952816 0.42281553 0.4852814 0.519519 0.46386886 0.5398401 0.54405427 0.4976821 0.524067 0.48734426 0.3447328 0.3666581 0.35572934 0.23856772 0.35609046 0.3943038 0.36487493 0.26866195 0.20264634 0.25200945 0.2730767 0.36087757 0.38044384 0.24202234 0.20293947 0.24956116 0.27671123 0.28486145 0.21405655 0.23892447 0.85596395 0.8637141 0.22989815 0.23972705 0.2390728 0.24956286 0.85877144 0.87113917 0.23521817 0.22905496 0.24501789 0.19009675 0.205467 0.14530486 0.2767597 0.27733767 0.3024251 0.10676347 0.22127134 0.22297508 0.3234396 0.3700524 0.3747925 0.38888568 0.18800776 0.24257898 0.28774896 0.38501704 0.45762783 0.4300509 0.38883096 0.23063469 0.3053558 0.4020032 0.47351852 0.44521216 0.23865104 0.28194433 0.39524487 0.4825156 0.41679597 0.2852362 0.34841833 0.43415794 0.49739808 0.39129174 0.60520977 0.5588782 0.61655617 0.6163522 0.5884527 0.4972652 0.41368535 0.5835664 0.5803863 0.460627 0.21593064 0.15370376 0.52285707 0.49940813 0.45751172 0.4175767 0.14073995 0.21837868 0.16502863 0.19460398 0.19275872 0.446886 0.39776278 0.35480195 0.28168786 0.3307993 0.25886732 0.20859522 0.23229682 0.23505053 0.2058286 0.20312983 0.33786237 0.22991791 0.28674567 0.32325608 0.271081 0.27289268 0.25092682 0.19115704 0.24841857 0.3095528 0.15439904 0.15170395 0.28084925 0.23448007 0.1389531 0.26044166 0.090363674 0.09852977 0.11916137 0.2764274 0.22176462 0.23429424 0.3294466 0.81725264 0.799518 0.77306104 0.11860946 0.14292556 0.19847184 0.1855236 0.17212778 0.32381007 0.42941773 0.52144307 0.8210759 0.8394001 0.8516505 0.8329234 0.73420215 0.16675544 0.19776976 0.32699937 0.34366134 0.47694927 0.54799706 0.8141998 0.8492837 0.8751664 0.87153757 0.85015684 0.2242305 0.22463217 0.12465252 0.40744948 0.5226985 0.82318276 0.84613836 0.8674022 0.88065183 0.15434147 0.20639405 0.20489736 0.14455006 0.092559814 0.2051516 0.14630187 0.16253087 0.18335031 0.12938216 0.020890445 0.20411362 0.073467754 0.11336593 0.18827726 0.22303054 0.22228307 0.3052031 -0.0031725373 0.030346569 0.09165996 0.34221932 0.3072368 0.25145838 0.06802072 0.33493268 0.44492114 0.41207427 0.34996784 0.2518043 0.086276025 0.19698748 0.20913222 0.57293135 0.56000483 0.57150245 0.5445858 0.47489417 0.15371218 0.21373785 0.42732495 0.6234907 0.67712456 0.59663177 0.61933887 0.6482446 0.47690713 0.2048989 0.23176453 0.2681085 0.47222197 0.6252995 0.684954 0.61378026 0.62654746 0.64201176 0.23373845 0.26766983 0.29403514 0.30705705 0.4387003 0.52341807 0.622451 0.35301796 0.5416979 0.5739357 0.5536474 0.47006974 0.43859082 0.41373056 0.57488585 0.5287477 0.512111 0.4654624 0.25106776 0.5944929 0.27361473 0.1548576 0.11695566 0.14189367 0.15419775 0.5804452 0.027599923 -0.011201682 0.09243828 0.13289571 0.16706368 0.15045433 0.14801945 0.47290337 0.16407022 0.15562062 0.1581327 0.15316209 0.34443265 0.19881307 0.16888198 0.14785683 0.2584902 0.30401856 0.24020994 0.09543547 0.10208385 0.095980465 0.1314555 0.69476986 0.7150078 0.6333833 0.21695225 0.2434549 0.24612251 0.23258317 0.14541636 0.19532642 0.3908043 0.46174175 0.5244825 0.7090358 0.7078043 0.7092997 0.613761 0.26355648 0.28011614 0.22314966 -0.17190218 0.5511613 0.5844627 0.7667384 0.6700554 0.22297639 0.22716092 0.27617964 0.03995473 -0.07695193 0.1455109 0.6073071 0.7976197 0.8017899 0.14282328 0.22868535 0.5365144 0.5829289 0.7939985 0.784707 0.7890277 0.78080523 0.34980327 0.16329956 0.07983501 0.03930579 -0.025288494 0.15052664 -0.07467324 0.13770854 0.41917145 0.495716 0.72884095 0.71430564 0.69879305 0.43827635 0.36617777 0.30083078 0.18775949 0.12450013 0.08889239 0.07083222 0.01720345 -0.08989662 0.011926168 -0.08475337 0.009564765 0.44992632 0.40362835 0.3107233 0.23760389 0.118697144 0.10445675 0.014295135 0.2047706 0.117760286 0.12804177 0.21700633 0.017779386 0.28282177 0.12267889 0.1712092 0.24773201 0.3151906 0.27371037 0.22751057 0.33507308 0.0969536 0.55788887 0.6848904 0.5167917 0.43385524 0.109568834 0.7089656 0.55634713 0.5384955 0.71493155 0.5715733 0.61901027 0.6311823 0.58876336 0.22122927 0.64871335 0.69729865 0.604758 0.6103832 0.24018121 0.25146747 0.5940136 0.6259142 0.39967483 0.50204104 0.5650335 0.5963934 0.31232968 0.27695316 0.40934408 0.3856151 0.36103004 0.3116588 0.16326705 0.12442001 0.13616124 0.15978202 0.4044808 0.20341176 0.1272732 0.13647953 0.152403 0.4259308 -0.0009678975 0.07768643 0.14273633 0.36018082 0.122940436 0.28003076 0.4260594 0.33756495 0.15242901 0.26226836 0.3939697 0.44536555 0.115614146 0.18999599 0.24938105 0.3997286 0.38885427 0.06535934 0.2753099 0.35481727 0.17358714 0.13157652 0.20503509 0.5329326 0.5029923 0.106664196 0.11560126 0.20376876 0.08035796 0.35929942 0.47243914 0.5106584 0.5410179 0.07864669 0.06752142 0.08340556 0.16630808 0.024454251 0.52365845 0.54740626 0.63884324 -0.0045084953 0.091778 0.15521236 0.566102 0.52604246 0.74738526 0.65410775 0.16274889 0.2901608 0.044171736 -0.05200559 0.50398296 0.6945317 0.7176726 0.53113985 0.19714144 0.38935572 0.3771841 0.6199983 0.57098556 0.53320885 0.46201366 0.4838394 0.25402865 0.46155807 0.43578428 0.35101387 0.08050929 0.48895758 0.43417352 0.36731356 0.20804241 0.26060084 0.14233837 0.11005746 0.28508705 0.18399607 0.2142939 0.55700374 0.6620102 0.6879705 0.69294155 0.2933596 -0.036741506 0.70817494 0.70579857 0.51100224 0.5615484 0.5036283 0.39966282 0.13013154 0.11712925 0.69116163 0.5510089 0.5663868 0.5763369 0.5134485 0.16034438 0.21098453 0.62081873 0.22465025 0.32694674 0.4100243 0.53563696 0.5991196 0.34443972 0.43909281 0.50824314 0.33367836 0.245914 0.19754378 0.14952107 0.123273455 0.12032521 0.25955838 0.3347045 0.1535124 0.16157283 0.15546289 0.26386034 0.15693374 0.56927 0.6216674 0.43119824 0.47451824 0.58157855 0.598118 0.5037556 0.515532 0.50067997 -0.043847136 0.44244564 0.44598466 0.22507554 0.07513353 0.00839705 0.3452112 0.40567672 0.19252503 0.2281395 0.21615288 0.3268076 0.4155997 0.40515572 0.35245544 0.44328737 0.13017567 0.3833424 0.41081735 0.4034325 0.24326712 0.20624772 0.5643441 0.5349101 0.47352302 0.3462339 0.32030845 0.34564662 0.037091695 0.054510575 0.41667664 -0.111731745 0.45209193 0.45332745 0.39536995 0.32742476 0.23890659 0.06610094 0.11616439 0.09961875 0.14988299 0.5391827 0.15755439 0.1971514 0.63012326 0.21753839 0.6387614 0.40263575 0.020276112 0.04801425 0.5542026 0.6192906 0.49343795 0.5282531 0.5418596 0.4956574 0.30636612 0.09494199 0.10638562 0.5020711 0.53007704 0.51506317 0.11394998 0.25449172 0.4761361 0.46505395 0.32407627 0.38655815 0.36273134 0.35870126 0.19112162 0.17590949 0.16502257 0.25037852 0.21107507 0.2047896 0.18855935 0.20083967 0.171083 0.1375968 0.11165218 0.16882503 0.24188642 0.14800952 0.1582832 0.16801122 0.1399204 0.16433579 0.18234777 0.14096467 0.64067936 0.6703081 0.67202824 0.14440566 0.04923114 0.02503708 0.28738162 0.42181903 0.6380883 0.59074295 0.39937824 0.55168235 0.54367864 0.44943327 0.037011474 0.4014343 -0.0067232847 0.09197396 0.3225632 0.039991602 0.21725196 -0.03396287 0.06943669 0.39366588 0.2741102 0.20022693 -0.08077419 -0.0019628815 0.34200215 -0.2892326 0.39205462 0.37036473 -0.34224337 0.26392558 0.267014 0.25368267 0.10438186 0.06483658 0.4252026 0.5416292 0.14187741 0.5646589 0.19489093 0.5489346 0.34328994 0.350161 0.44167078 0.43718636 0.47139803 0.38408798 0.10107096 0.29476428 0.45851445 0.21392182 0.09926792 0.08232577 0.071542196 0.060228184 0.250746 0.30047584 0.37235302 0.35868284 0.43556765 0.45679295 0.4619633 0.46265656 0.21115308 0.29792178 0.39426076 0.38550365 0.40611207 0.12313003 0.10098921 0.15013844 0.11547644 0.10215224 0.093007885 0.09005439 0.1487954 0.12663648 0.11111179 0.10261631 0.47068036 0.46354693 0.41863197 0.29772514 0.0936104 0.62346125 0.66377944 0.6624689 0.45324302 0.45314994 0.40911067 0.30857354 0.1696521 0.52042145 0.6356869 0.36190474 0.43239874 0.4925951 0.3135472 0.31483042 0.42290318 0.40999362 0.11167982 0.3488031 0.30300742 -0.11201493 0.15528208 0.13209854 0.15015292 0.07717541 0.14142297 0.25498515 0.12226732 0.14831972 0.47566682 0.19306652 0.030952886 0.11784448 0.683928 0.60178614 -0.44873592 -0.1512914 0.64906347 0.5240521 0.19746447 -0.05622316 0.07435854 0.22510073 0.17953686 -0.2778894 -0.31780225 0.26769546 -0.3145377 0.10827034 -0.027601533 0.111440435 0.08821575 0.11917494 0.116144374 0.120974034 0.19092956 0.20845528 0.19598372 0.014673628 0.2528596 0.31138545 0.1132213 0.23748669 0.1938996 0.13053203 0.002436068 0.033531584 0.09636757 0.101440445 0.42117292 0.47864673 0.48603272 0.45995632 0.09424417 0.36780965 0.029573016 0.06256257 0.59713864 0.649055 0.111294135 0.06079464 0.06194447 0.3991396 0.51758283 0.60052025 0.10234456 0.11708709 0.1771695 0.42220092 0.34843868 0.2197102 0.055324413 0.10657126 -0.0033929702 0.4655761 0.44991335 0.42704377 0.31076574 0.60506403 0.6053406 0.44160184 0.494514 0.5495125 0.36595967 0.39184198 0.47960773 0.28022814 0.100148216 0.40334564 0.26854694 0.2809409 -0.028648391 0.2101632 -0.031953543 0.17057739 0.03691593 0.2676527 0.13154118 0.15205412 0.8433541 0.77062476 0.6199571 0.12308489 0.8764982 0.8009294 0.63423604 -0.1893955 0.8465564 0.8211241 -0.27633303 -0.27399755 0.6940392 0.49676752 0.26704997 0.04579293 -0.023990966 -0.049875867 0.019622127 -0.27699488 0.08902181 0.3460889 0.55924207 0.2994391 0.2911292 0.2962255 0.36489254 0.081330016 -0.08099191 -0.16543393 -0.034643687 0.2520643 0.3530577 0.4168498 0.44418305 0.42702293 0.31795555 0.12949017 0.32656875 0.2567395 0.20332274 0.15489724 0.15118155 0.8815022 0.90746176 0.29403535 0.24840015 0.12624395 0.23577544 0.86070716 0.8867587 0.92005396 0.23176476 0.22516987 0.27722389 0.897045 0.9139822 0.15701121 0.1738962 0.17297882 0.17551616 0.2127745 0.21452537 0.16790482 -0.057174273 0.12762545 0.056612663 0.20664641 0.24373767 0.28779012 0.26049945 0.22089335 0.4063986 0.4772293 0.19048278 0.27199546 0.42087698 0.48122352 0.4770997 0.44015825 0.13722083 0.15693502 0.4818222 0.6565163 0.7052083 0.72393876 0.6457558 0.6897383 0.7031963 0.12328811 0.07708728 0.61609495 0.6572346 0.081286825 0.11345445 0.57470703 0.37986523 0.35082585 0.28763938 0.17561744 0.062161565 0.44489765 0.3245765 0.38550776 -0.2972511 -0.1410135 0.4003008 -0.19735809 0.0666678 0.2610647 0.23704815 0.28560364 0.089854315 0.3101063 0.2554556 0.21753603 0.2973748 0.116371684 0.23581867 0.25476503 0.08394814 0.2533529 0.20792186 0.12934938 0.88971114 0.78444964 0.31598875 0.09133388 0.9227884 0.8093618 -0.055814907 0.9596173 -0.0973751 0.096327916 0.94887495 0.8451091 0.10777107 0.33985168 0.85671365 0.78717995 0.70210916 0.32368487 0.3829226 0.67928076 0.07380809 0.37113184 0.39552298 0.5133463 0.3831117 0.29187003 0.17626467 0.06406676 0.3575184 0.39084053 0.7662926 0.8486421 0.8946104 0.58608943 0.5868954 0.5157429 0.46290904 0.3484658 0.2613886 0.35628316 0.08501446 -0.068295956 0.22146283 0.37462908 0.79516155 0.8764074 0.9217845 0.95790005 0.38356268 0.36182475 0.35432354 0.30585107 0.17945565 0.7324818 0.8092663 0.9349345 0.956416 0.20834051 0.21105519 0.29030293 0.7566542 0.84110284 0.8910172 0.92063063 0.9306775 0.21004294 0.19286072 0.16685003 0.24238694 0.28519657 0.77952343 0.81597733 0.8701829 0.18660752 0.19341864 0.15383565 0.1477914 0.18706793 0.107933834 0.41123092 0.3856882 0.4731319 0.5228392 0.558865 0.58851016 0.47906142 0.43692267 0.57547295 0.5952803 0.47954857 0.47929305 0.44922924 0.24858026 0.23252581 0.23930416 0.37736374 0.4076128 0.21485436 0.20998445 0.646983 0.7176879 0.7335185 0.21430145 0.698028 0.10718556 0.61487734 0.52567226 0.10241577 0.5246525 0.26942366 0.20100263 0.052798472 -0.01580809 -0.0007862076 0.36223477 0.25748307 0.2650587 0.0038586855 0.06529555 0.2741434 0.2662078 0.26605487 0.3342201 0.57898945 0.3034674 0.298945 0.39920503 0.5473979 0.27188325 0.46731436 0.2736144 0.4578394 0.34235132 0.2524656 0.8876705 0.7978698 0.9462769 -0.0077342615 1.0 0.21100417 0.2596429 0.9427029 0.27960402 0.2804067 0.7371615 0.38763183 0.60468286 0.44506633 0.45295054 0.61416775 0.45704424 0.3995113 0.60635173 0.7447083 0.8471831 0.8852134 0.64229643 0.65717876 0.6222498 0.5353879 0.44916964 0.32384995 0.34202203 0.24902697 0.093136385 0.24992317 0.4781539 0.46190897 0.9534337 0.4449696 0.44480586 0.42391253 0.40360057 0.18586922 0.18072349 0.5484585 0.968378 0.20218924 0.21643582 0.2682754 0.6681365 0.8758658 0.87159276 0.17976992 0.2823025 0.71550727 0.75587416 0.7522667 0.8305733 0.8097775 0.19742613 0.21286851 0.1925948 0.2817191 0.2623186 0.16936442 0.4079215 0.36123395 0.54693204 0.57094693 0.5847624 0.5285213 0.60847414 0.6235036 0.6130676 0.21397267 0.47355306 0.46800107 0.23802283 0.22403544 0.3889463 0.42041233 0.20694055 0.18627274 0.3945933 0.52708244 0.65814614 0.6889453 0.67248917 0.57200694 0.5281213 0.0052779242 0.09444888 0.38520557 0.39678544 0.1411473 0.1276763 0.14048107 0.21530436 -0.013626054 0.20986831 0.08747612 0.26749295 0.23978952 0.07499842 -0.03977297 0.33212578 0.3122463 0.12839249 0.54476804 0.5960591 0.36571646 0.3745845 0.5256642 0.6228584 0.6510363 0.35999528 0.616652 0.64192927 0.28790665 0.6190698 0.45207334 0.26479906 0.22868985 0.7851909 0.62537336 0.3186182 0.90160716 0.80287015 0.5445214 0.14874417 0.92868733 0.7964846 0.20462418 0.21872036 0.8914845 0.77694535 0.60317075 0.23716953 0.6748803 0.6225607 0.3110632 0.40005893 -0.058635183 0.47811395 0.2620979 0.34546605 0.64389575 0.46517628 0.5882435 0.12917694 0.057428095 0.35099438 0.39586508 0.4187078 0.71356714 0.7098059 0.7981206 0.6357789 0.65482783 0.6499126 0.59807634 0.3340677 0.13980435 0.2435811 0.3539439 0.36348277 0.36222324 0.37085086 0.8526851 0.47139078 0.44192433 0.15646562 0.09177564 0.009194251 0.15678734 0.3953352 0.868202 0.14308473 0.14432034 0.2655194 0.4889965 0.7164022 0.8115769 0.19227472 0.19181679 0.6885158 0.70851994 0.71410877 0.6377988 0.6488542 0.2003054 0.22599317 0.11636055 0.16207708 0.6651287 0.28972182 0.33727825 0.19272417 0.36585438 0.42201367 0.48498243 0.3813665 0.5012465 0.55227315 0.6168382 0.59448266 0.53390443 0.62429804 0.62556434 0.61246955 0.17875066 0.17601427 0.47226924 0.46749496 0.17043452 0.16161042 0.13210338 0.14256042 0.37338236 0.4294576 0.39318743 0.16943178 0.30084077 0.23139438 0.45489544 0.61432445 0.19915484 0.08712773 0.4177928 0.2110554 0.19031721 -0.040347762 0.42310184 0.15774307 0.045080632 0.0167154 0.11415684 0.13410562 0.17033824 0.22980624 0.36132005 0.3475958 -0.024875417 0.3777991 0.5466793 0.60700554 0.42398834 0.6305479 0.66015357 0.43730727 0.6818261 0.3805107 0.6419064 0.23461908 0.54921556 0.19709718 0.16231951 0.2014445 0.0041543692 0.5088975 0.33023536 0.254383 0.13733165 0.085847616 0.55229753 0.325645 0.13183033 0.51479304 0.3819342 0.1716874 0.11654331 0.47272408 0.34162533 -0.08638657 0.20691088 0.37355125 0.37464306 0.4337799 -0.0044208714 -0.17462188 -0.19079404 -0.08413705 0.27022478 0.3675111 0.41630065 0.46408415 0.53511673 0.1591273 0.15624936 -0.30351886 0.5519413 0.63644314 0.59150684 0.58457065 0.5508348 0.509366 0.36586052 0.15495059 0.24413803 0.23172787 -0.08540425 0.18394442 0.27365774 0.66852105 0.40357804 0.37638342 0.01710654 0.27137625 0.7180657 0.119525045 0.3816205 0.56319886 0.66168666 0.21660179 0.5995236 0.5819316 0.5570925 0.52143687 0.26643977 0.29387566 -0.044510596 -0.00640887 0.3348454 0.3852622 0.45532984 0.51018023 0.5360695 0.5087613 0.549153 0.5928766 0.6089101 0.58364934 0.62074304 0.61461806 0.438995 0.31339145 0.25623843 0.34749615 0.10810284 0.10841264 0.22004862 -0.0034248158 0.02561312 0.10801128 0.36169693 0.06821474 0.0777447 0.22688146 0.2166363 0.15030548 0.009313222 -0.09104711 0.10631234 0.16969047 0.21681947 0.07226223 0.2598418 0.23957346 0.10087248 -0.19210158 0.2835316 0.21650279 0.12230526 0.11794248 0.299817 0.11199039 0.12825459 0.11497987 0.13973375 0.21477692 0.1520918 0.4161017 0.06097965 0.43352854 0.50846577 0.597029 0.4601587 0.46741492 0.4327321 0.6114944 0.6464149 0.4605896 0.64240927 0.4327116 0.37838882 0.54468954 0.26898775 0.23918495 0.18133011 0.4158237 0.026746042 0.04398127 -0.011528067 -0.03619287 -0.019514613 0.045247797 0.0037946394 -0.01399406 -0.024284042 0.10503794 0.15387313 0.2696313 0.1978479 -0.0652688 0.3185333 0.2910763 0.25516522 -0.046118394 0.10235035 0.3377457 0.3298625 0.19723049 -0.14705941 0.23455235 0.28755158 0.3647587 0.4036926 0.2601481 0.056086794 -0.27082458 0.29644054 0.28940922 0.32237983 0.49325645 0.4294433 0.16375081 0.14152272 -0.12131676 -0.024456471 0.38601825 0.50268584 0.3316832 0.3007663 0.34475794 0.2803585 0.19567843 -0.04571733 0.21682829 0.47840056 0.09563885 0.14372009 0.5388765 0.1498718 0.19337891 0.038736336 0.21605226 0.43534938 0.23545498 0.26266196 -0.23207423 0.21974634 0.3035181 0.33887735 0.30013052 0.29980832 0.05864758 -0.15786704 -0.109185904 0.49357218 0.66286254 0.34929338 0.3788956 0.42176318 0.46557453 0.35499716 0.26427776 0.6096617 0.5134661 0.72870016 0.76583874 0.44282353 0.5097371 0.5256513 0.52280545 0.6620976 0.74818116 0.7847537 0.78545666 0.5732614 0.76075214 0.7795555 0.6334293 0.6546326 0.653525 0.5656948 0.53638107 0.573889 0.55181974 0.49359164 0.4238431 0.39410907 0.4336631 0.39945585 0.080192044 0.27197427 0.01859525 -0.19288544 0.5397002 0.5522177 0.20183668 0.12711148 -0.40620378 0.40147337 0.2732284 0.36550596 0.26032013 0.2347865 0.22675249 0.20461681 0.09400675 -0.08480946 -0.5450626 0.30212757 0.31766534 0.2797608 0.24660821 0.348137 0.05036281 0.34075063 0.12604687 0.11093438 0.2461158 0.09279816 0.5222548 0.5162629 0.5501285 0.58178246 0.46618629 0.4695647 0.4156459 0.40313148 0.42030585 0.29904032 0.3079934 0.06736873 0.23703958 -0.20863776 -0.0018071458 0.17478158 0.20018283 0.033289544 0.19144122 0.059981592 0.17249818 -0.46951962 0.19336872 0.270434 0.2686752 0.4274568 0.05981268 -0.060446598 0.26119167 0.42734846 0.30483785 0.2723273 0.24615505 0.2288126 0.5172311 0.44195944 0.4204358 0.35996354 0.15884763 0.43622395 0.4352423 0.17851444 -0.06226307 -0.08634582 -0.43152288 0.3093227 0.37314463 0.06817852 0.16603829 0.105627716 0.10123429 0.14299443 0.17484252 0.31194872 0.26147577 0.2264521 0.07224621 -0.23306885 0.34951243 0.24621475 0.25347397 0.25508624 0.12535073 0.38302514 0.35741663 0.45119223 0.62810016 0.6650679 0.7929159 0.696429 0.7543682 0.78090644 0.7859949 0.72552407 0.690377 0.6344929 0.67368877 0.70911986 0.6561635 0.586106 0.4989116 0.49827695 0.51289785 0.4045946 0.3585525 0.29493684 0.3198631 0.07520772 0.17133638 0.5472201 0.5555491 0.5301223 0.237618 0.23029159 0.18509762 0.057625428 -0.16475396 -0.1823938 -0.090032324 0.50328815 0.4396169 0.22234899 0.2212467 0.15813679 -0.1901389 -0.22035266 -0.30296302 -0.3776561 -0.12470703 0.27091745 0.37905642 0.26036966 0.22753121 0.32720664 0.34674996 0.29573232 0.4036068 0.384782 -0.04107293 0.002534951 0.23793802 0.41841736 0.14958829 0.27191788 0.36271 0.39686373 0.31875515 0.3436603 0.35357717 0.07140759 0.030803077 0.1108754 0.04688983 0.046993375 -0.00085612386 -0.012379564 -0.18279158 -0.015163366 -0.0063354857 -0.26566994 -0.20872054 9.157136e-05 0.2049539 0.0686346 0.03237242 0.20373707 0.18666624 0.17342633 0.4424364 0.19763632 0.58921343 0.32925218 0.19627182 0.19191039 0.60058427 0.6055751 0.5207355 0.5267228 -0.09909889 -0.20263156 0.635883 0.6015564 0.51428074 0.38071302 0.33652717 -0.04576237 -0.045582123 -0.14543651 -0.11535393 0.687202 0.7289667 0.56483763 -0.03633391 -0.012769703 -0.037727818 0.17147252 0.6039151 0.37418476 0.37693 0.38703364 0.6082803 0.40735042 0.44230068 0.4619359 0.4591303 0.55358016 0.63099253 0.41779837 0.4993249 0.73163974 0.59212583 0.62270284 0.7531731 0.6523558 0.71377456 0.75189126 0.7661934 0.7278955 0.6842294 0.5985044 0.69830287 0.5184867 0.45093608 0.49713293 0.3705448 0.3204217 0.2621507 0.24271148 -0.05404167 0.23877564 0.45843583 0.5000763 0.49537146 0.23076595 0.2394761 -0.00014374405 -0.008563682 0.45973656 0.41366804 0.22545129 -0.32752317 0.35474473 0.22893989 0.3868206 0.33298892 0.40282014 -0.06717713 0.21286297 0.28424954 0.40307176 0.40961617 0.2978493 0.3273391 0.3848391 0.33778664 0.34327182 