# vtk DataFile Version 2.0
Really cool data
ASCII
DATASET POLYDATA
POINTS 3445 float
22.090729 40.07071 3.684241
22.281303 39.747997 4.3960423
22.403929 39.86332 4.9982166
22.121712 40.854248 3.0559223
21.983522 40.63909 3.6753285
21.971045 40.607937 4.3808346
22.178665 40.4442 5.0299926
22.24492 41.35409 2.9976354
22.039207 41.453136 3.607509
22.016813 41.475437 4.4859266
22.191618 41.39197 5.1337833
22.249186 41.90174 3.6189883
22.225777 41.955048 4.510592
22.191172 41.934566 4.895605
23.287582 34.276237 4.491544
23.25243 34.245533 5.5493307
23.332304 34.92578 2.6522703
23.271103 34.67905 3.485393
23.136255 34.47843 4.647403
22.962114 34.767887 5.595214
23.143677 34.83391 6.2611427
23.349318 35.75703 2.0710754
23.189104 35.51415 2.6367452
22.862532 35.281353 4.079234
22.761942 35.63055 4.6272573
22.736582 35.598946 5.671945
22.945528 35.558395 6.336606
23.28693 35.50415 6.815523
23.09909 36.26564 2.7483547
22.973085 36.449684 3.5653217
22.76732 36.54143 4.72473
22.768496 36.52803 5.445097
22.985958 36.578445 6.247392
23.269524 36.323376 6.8970942
23.192654 36.98016 2.890761
22.915262 37.41637 4.406125
23.019188 37.071598 5.5377526
23.086699 36.870686 6.272672
22.921179 38.60797 3.7087116
22.571354 39.05606 4.436693
22.49188 39.90903 5.2575436
22.75355 40.077705 5.6545544
22.667524 40.402683 2.657957
22.43862 40.79192 5.526698
22.850426 40.59201 5.8045926
23.078913 41.142056 2.3057675
22.516745 41.413147 2.8083386
22.511787 41.27375 5.57923
22.764269 41.359867 5.7382717
22.770306 41.974377 3.0489492
22.714434 42.282322 3.599738
22.57888 42.362892 4.4028134
22.680374 42.150818 5.250677
23.126934 42.58048 3.9655476
24.346354 33.16514 6.0853477
24.382603 33.162632 6.915147
23.851477 34.170418 2.701606
23.783846 34.010986 3.5316484
23.624846 34.087994 4.206006
23.599566 33.94785 5.4812565
24.013643 33.62068 6.213302
24.391182 33.572876 7.655144
24.394314 33.881786 8.123348
23.871637 34.882324 1.9421148
23.586397 34.569263 2.7074726
23.496937 34.33017 3.4333384
23.553019 34.543743 6.51536
23.644894 34.782505 7.032668
24.325783 34.181038 8.203406
24.129065 36.029713 1.1633745
23.631554 35.58705 1.8167689
23.83963 35.592735 7.3945484
24.066849 35.474525 7.7869797
23.930614 36.266212 1.3355526
23.576845 36.478706 1.8977268
23.761564 36.433254 7.1861258
24.259996 37.960327 1.0890138
23.60457 37.397377 2.1653314
23.454716 36.87567 2.3631938
23.563768 36.948277 6.8165755
24.382185 38.767876 0.25413856
24.066568 38.777317 1.663224
23.48292 38.261063 5.36928
23.73818 37.83921 6.3108497
24.404663 39.43526 -0.16507615
23.50815 39.52901 2.021428
23.912254 39.486176 5.9984827
24.360264 40.167187 0.38602298
23.634222 40.103855 1.9372035
23.874344 41.607918 2.2158663
23.257524 41.925415 2.5910716
23.412746 42.347954 5.47667
23.441004 42.738914 4.357929
23.509861 42.789513 4.914889
25.172302 32.238403 5.6510887
25.045177 32.212986 6.2919936
25.135872 33.3039 2.6319096
24.9938 32.863216 4.966198
24.708199 32.739502 5.7931767
24.898365 32.45383 6.645748
24.855524 32.666805 6.962187
24.944061 32.974564 8.313541
25.06362 33.11924 9.100237
24.889368 34.142273 1.9156295
24.50729 33.708206 2.72956
24.504257 33.614384 3.4921918
24.34249 33.366642 5.2539463
24.56061 33.291546 7.5393114
24.516056 33.44931 8.329383
24.773355 33.729176 9.17621
25.18232 33.838055 13.963019
25.256832 33.608696 14.53175
25.229834 33.897903 15.218263
24.601742 34.571594 1.7551693
24.50925 34.37302 8.739813
24.723505 34.207466 9.21931
25.151863 34.40882 9.83994
25.078518 34.4096 13.888001
24.99842 34.445274 14.446587
25.104717 34.460205 15.2689295
25.340874 34.42706 15.8629875
24.527266 35.69548 1.1314055
24.585262 35.57353 8.565847
25.051704 35.09965 9.479682
25.246765 35.6419 13.7356825
25.11506 35.36584 14.550929
25.10731 35.142715 15.167634
24.993723 37.2019 -0.1572959
24.533436 36.93699 0.7363117
25.034021 36.45732 8.492863
25.300394 35.941174 9.394406
25.297909 36.02375 13.991226
25.265545 36.080715 14.562576
25.386694 36.451313 15.069321
25.230536 38.104294 -2.8648107
25.04036 38.111618 -2.6182172
25.000267 38.025784 -1.2590079
24.658472 37.41464 7.226628
25.169424 36.992832 8.052176
25.402275 36.915962 14.259159
25.21801 39.02693 -3.6628864
24.956999 38.719193 -3.2598157
24.64787 38.835903 -2.605042
24.841124 38.31037 -1.2561506
24.562815 38.36939 -0.022977568
24.842579 38.093956 7.4899244
25.225586 38.538948 7.851182
25.249184 39.3537 -3.784021
24.763538 39.42189 -3.1037753
24.552832 39.396297 -2.4212139
24.577257 39.534664 -1.6695453
24.614054 39.167202 -0.89365464
24.621765 39.17789 7.1071424
25.056286 39.93865 -3.2830253
24.878952 40.226376 -2.3757477
24.695686 40.106483 -1.5003331
24.728508 40.415173 -0.718423
24.693604 40.772118 6.7805934
25.227133 40.83225 -1.4440581
25.151033 40.893234 -0.64285254
24.899683 40.833054 0.30093747
24.676281 41.323685 1.5765893
25.027218 41.948215 1.9421813
24.270391 42.318825 2.4310627
24.830633 42.149868 6.7057166
25.414715 42.592903 8.694757
25.002853 43.096127 2.9850578
25.13462 43.281742 3.547297
24.598095 43.03688 4.834252
24.199263 42.696953 5.128142
25.409016 43.432236 8.570068
25.381357 43.637573 9.825617
25.443592 43.416622 10.368388
25.43055 44.01926 9.424593
25.338951 45.936203 4.6884623
25.37316 46.89098 4.8214917
25.347536 46.3251 5.203454
25.479784 47.59721 4.9229374
26.183798 26.401482 -10.573215
26.120077 26.994932 -11.673613
25.980196 26.747072 -11.229624
25.856003 26.72187 -10.513983
25.963213 26.779743 -9.6669235
26.081497 27.033833 -8.844919
26.043524 27.453022 -11.677349
25.773567 27.383503 -11.292615
25.573984 27.564886 -10.541451
25.650955 27.508167 -9.4988575
25.888805 27.572496 -8.6974
26.202154 27.671268 -8.254172
26.169601 27.965034 -11.679803
25.884638 28.077103 -11.268281
25.76254 28.372429 -10.593253
25.681305 28.231623 -9.635555
25.914692 28.297749 -8.755585
26.184572 28.106314 -8.276274
26.221231 29.191406 -10.888898
26.15799 29.157345 -10.252985
26.157879 29.229216 -9.48714
26.293015 29.157806 -9.031893
26.264547 31.165909 6.080482
25.997908 32.070038 3.7488108
26.080545 31.793465 4.489185
25.71657 31.665873 5.776528
25.856699 31.644815 6.440756
26.001488 32.005432 7.0483837
26.292915 32.285725 14.431689
25.969667 32.862103 2.4975312
25.87244 32.369904 4.1022315
25.38598 32.598495 8.288574
25.72334 32.77931 9.406293
25.974995 33.050198 11.781084
25.910265 32.98522 12.627716
26.094116 32.71173 13.178912
25.824408 32.853455 14.517063
25.921864 33.009212 15.397215
25.851448 33.808235 10.857108
25.62485 33.555862 11.70961
25.621094 33.464897 12.62814
25.476772 33.340153 13.598644
25.4591 33.364933 14.253078
25.557823 33.474075 15.447452
25.979874 33.72283 16.290545
25.59885 34.906963 0.9917908
25.695494 34.460224 11.18836
25.912086 34.50375 16.527431
26.101484 34.603455 16.743788
25.895338 36.228634 0.11339684
25.743038 35.011917 10.330345
25.689693 35.29451 11.697706
25.501373 35.24369 12.827971
25.901745 35.880863 16.615812
25.933163 35.20395 16.715534
26.051937 37.10892 -2.0275307
25.534086 37.205914 -1.3957225
25.786928 36.779057 -0.59728515
26.038668 36.731667 12.067498
25.66691 36.246273 12.6404705
25.575916 36.598045 13.296616
25.611435 36.777077 15.677182
25.986551 36.36132 16.542553
26.275337 36.555756 17.038609
26.251667 37.93888 -4.037411
25.640978 38.03708 -3.4599345
25.51474 37.566444 -2.4738982
25.4791 37.38809 -1.5471381
25.43854 37.702694 8.156225
25.956884 37.337025 8.730123
26.13506 37.086006 12.249064
25.692978 37.519398 13.708543
25.575562 37.11703 14.489272
25.78164 37.115135 15.341721
26.066273 37.486557 16.335842
26.318853 37.485634 16.914783
25.759281 38.65814 -4.076068
26.079367 37.966755 12.7858925
26.0328 38.375183 13.784359
25.837187 38.00288 14.350849
26.227394 38.457607 15.636762
26.21709 38.34122 15.987815
25.614838 39.3224 -4.00071
25.866148 39.373997 8.371436
26.16043 39.544353 8.674863
26.208826 38.813503 13.990435
26.344454 39.277935 14.616391
25.81974 40.11105 -3.8643143
25.595158 40.371944 -3.4674919
25.529287 40.710224 7.6140485
26.010517 40.661293 8.360998
26.073961 40.91207 8.905846
25.70532 40.749447 -2.995788
25.667105 40.952427 -2.1543746
25.702103 41.15048 -1.3420398
25.304867 41.142525 0.67359364
25.535349 41.13362 7.865434
25.80737 42.026154 9.556802
25.962889 42.03899 10.227132
26.181133 42.176952 11.367655
25.90916 41.8015 0.902714
25.522713 42.415768 2.107997
25.648746 42.226353 9.147556
25.69053 42.716908 10.629712
25.989546 42.71052 11.225909
25.502518 43.289978 2.9336777
25.597605 43.47679 7.4567366
25.509075 43.797672 8.382661
25.535952 43.38474 10.50253
25.930239 43.442406 11.292861
26.295359 44.537563 2.9715323
25.76651 43.74963 3.5160785
25.649855 44.641006 4.6381764
25.681614 43.99933 7.052802
25.553482 44.13971 8.712433
25.70971 44.516136 9.570866
25.683758 44.497208 10.537341
25.976904 44.415974 11.15962
25.597403 45.76031 4.0860786
25.489477 45.130474 4.715878
25.572544 45.33312 5.564858
25.75137 45.76146 6.1240606
25.958397 45.124718 9.767389
25.947588 45.06029 10.4382925
26.054699 44.903152 10.990263
25.750822 46.723816 3.6602154
25.543964 46.351707 4.2246046
25.741875 46.666054 6.0144925
26.317625 47.85212 3.0958872
25.736038 47.512535 3.9065022
25.533669 47.691307 4.5657988
25.615406 47.56831 5.47705
25.79631 47.468773 5.9051023
25.926392 48.132786 3.809727
25.708878 48.370632 4.602746
25.774172 48.34486 5.4733644
26.110146 48.375935 5.9587646
26.314766 48.94281 3.9102747
26.04965 48.9583 4.5814805
26.085388 48.95727 5.331322
26.153027 48.776806 5.790008
26.452255 26.378263 -11.117402
26.503292 26.286047 -10.476553
26.595587 26.37804 -9.713305
26.980118 26.420418 -9.006973
26.567867 26.852577 -11.768485
26.52199 26.580435 -11.52082
26.37996 26.48788 -9.524339
26.692942 26.792799 -8.610556
26.399038 27.15465 -8.287104
26.625828 27.409443 -11.960064
26.522984 27.478817 -8.162733
27.326595 28.220915 -1.8475629
26.55405 28.17321 -11.879529
26.475191 28.059626 -8.107005
27.209414 28.698908 -3.029428
27.007124 28.735115 -2.4965398
26.981783 28.828838 -1.8038391
27.120298 29.066172 -1.2200996
27.094698 29.432259 -11.622287
[...]
POINT_DATA 3445
SCALARS features_00 float 1
LOOKUP_TABLE default
0.6233356 0.5153314 0.48681247 0.6661293 0.69846785 0.6565083 0.5819396 0.6661095 0.72449875 0.7209922 0.6719319 0.7139101 0.7263026 0.7141107 0.34571344 0.34954774 0.4297617 0.40134922 0.3714813 0.4206406 0.39037338 0.39896575 0.42987037 0.4408186 0.48097667 0.48039544 0.42813277 0.37375253 0.38864034 0.39498162 0.42396927 0.42779326 0.37473482 0.3254434 0.30408248 0.254487 0.34306052 0.33379704 0.24325688 0.3586989 0.46737397 0.42109722 0.5387397 0.57051617 0.4556809 0.49378443 0.6216207 0.608639 0.57835716 0.6142272 0.66286016 0.6979351 0.67819166 0.6151466 0.22025904 0.22308359 0.38370705 0.33756715 0.31882563 0.30442104 0.24690971 0.25232545 0.2672168 0.4174323 0.41180676 0.37660745 0.3293206 0.31448093 0.2620383 0.2975667 0.3959988 0.2840538 0.24504067 0.29223508 0.3134513 0.24058846 0.024737788 0.19297597 0.29123798 0.23810181 0.15730584 -0.034011867 0.14612937 0.13412586 0.2959315 0.14563449 0.08512239 0.23111252 0.27377316 0.30591762 0.4783393 0.5915655 0.577636 0.58755696 0.19391996 0.2029711 0.25596097 0.186942 0.20610714 0.21190691 0.22335759 0.29333097 0.31058133 0.332248 0.32437325 0.27632338 0.22924203 0.2484027 0.28526178 0.29385495 0.4491663 0.48763368 0.53904724 0.37710613 0.25773856 0.26321167 0.21106172 0.44914228 0.49557707 0.538277 0.53138125 0.30396718 0.18584388 0.18693256 0.3278317 0.41286838 0.48024476 0.14805335 0.13392913 0.07100351 0.113035694 0.3170238 0.34331787 0.3489195 0.43843296 0.45003468 0.35414737 0.061902467 0.038425483 0.30324996 0.50894743 0.51922226 0.5453087 0.3843817 0.18812518 -0.0027331114 -0.025372617 0.5112171 0.5789274 0.57311165 0.50068045 0.39728418 -0.023720939 0.5668335 0.5467163 0.45410696 0.34310225 0.09563823 0.37000284 0.25992954 0.17341468 0.07446473 0.0544087 0.19660676 0.15030745 0.32435328 0.11615575 0.1307528 0.39628756 0.48675278 0.37757373 0.5210172 0.5753488 0.4998042 0.3831388 0.4611429 0.42252576 0.5123689 0.91237336 0.86996824 0.90836906 0.9481989 0.9033685 0.83595634 0.8348866 0.87702036 0.9456836 0.90371084 0.80807436 0.77646244 0.74505794 0.7524775 0.7428652 0.80624473 0.72550917 0.7326094 0.5810288 0.5918507 0.5841793 0.58948463 0.15718351 0.14568636 0.15050982 0.17610818 0.18168695 0.20510435 0.38656166 0.17173156 0.15322939 0.28468248 0.26279032 0.25111014 0.2931422 0.3294679 0.43170398 0.4938807 0.15284751 0.25370714 0.29427248 0.3801508 0.44511545 0.5271034 0.5016432 0.21751754 0.12102944 0.47595406 0.4547401 0.047340803 0.10579343 0.12951575 0.2793087 0.43198088 0.448408 0.235679 0.25900584 0.14435524 0.21938305 0.24324536 0.2728745 0.3729285 0.41724262 0.41638148 0.3205207 0.39967218 0.35262853 0.29359868 -0.014304042 0.0007069111 0.2566303 0.29709876 0.3117241 0.3473339 0.39096683 0.4080783 0.41996035 0.30947745 0.34579396 0.3318286 0.38583016 0.38966426 0.46176666 0.01529929 0.009473413 0.38484406 0.42344847 0.45806998 0.5147541 -0.0004795231 -0.019627638 0.04167843 0.5029682 0.42924967 0.28834778 0.05508364 0.00237583 0.33065927 0.42333072 0.65462613 -0.044129014 0.055885352 0.31525075 0.550378 0.6782043 0.0076154023 0.11240522 0.35515815 0.59702337 0.735266 -0.027610287 -0.067993365 0.18476775 -0.036916673 0.3971154 0.5528316 0.66964656 0.72652906 0.32315037 0.29310128 0.317137 0.3702247 0.6070232 0.670578 0.7038778 0.37802008 0.3926007 0.46970674 0.34094387 0.44258845 0.49980253 0.52331156 0.5051774 0.44588497 0.5212673 0.5353353 0.49093682 0.4441849 0.50457513 0.50614804 0.48991078 0.87867683 0.8783771 0.8506323 0.78184354 0.83953375 0.8588804 0.861836 0.7937588 0.79374063 0.78269434 0.76689154 0.50653714 0.67992526 0.7217457 0.5460428 0.5825332 0.56879365 0.47116765 0.47491133 0.53131324 0.49654347 0.5875099 0.61732656 0.5689023 0.41429478 0.17755596 0.4079029 0.42661405 0.45583934 0.40855667 0.32725233 0.5375005 0.5698681 0.5563063 0.2978377 0.16321781 0.15837294 0.15393622 0.37198904 0.2891071 0.4264139 0.42922527 0.4237594 0.13108838 0.14952789 0.1892392 0.32078207 0.32893696 0.34434807 0.3631063 0.33208776 0.25743145 0.3310988 0.07852321 0.33504474 0.4286549 0.47588485 0.2564272 0.16664515 0.43443233 0.44347867 0.08523632 0.44924706 0.037549198 0.4241476 0.42218846 0.14963868 0.15270875 -0.0364879 0.42462856 0.43350834 0.2597127 0.22642867 0.21021089 0.42007655 0.43342108 0.36137795 0.29871172 0.29369426 0.30483812 0.34297615 0.40905634 0.42708516 0.43793657 0.3326736 0.31780916 0.4380032 0.43225092 0.42488045 0.2651131 0.39042652 0.048215777 0.4382344 0.47326678 0.4869278 0.47045845 0.27420133 0.2010916 0.6155081 0.054774024 -0.08523187 0.7697631 0.76479816 0.7166915 0.7318153 0.026878178 0.10277647 0.5974666 0.65559345 0.6864878 0.6131702 0.13083598 0.15675028 0.6188812 0.6258459 0.63367987 0.23536186 0.37303317 0.23649046 0.6227228 0.6336092 0.28822953 0.41014823 0.314889 0.4288112 0.43419075 0.40524966 0.3521815 0.33953902 0.3601214 0.7848562 0.788221 0.77737975 0.49320763 0.52449244 0.7592412 0.7408618 0.71506214 0.48338783 0.4910047 0.48698124 0.71025896 0.7139028 0.3982808 0.39732477 0.3518247 0.3997491 0.440525 0.4398494 0.5298126 0.6425234 0.42751032 0.506208 0.24903327 0.33795962 0.22288617 0.25567186 0.3134229 0.4511538 0.43558073 0.4909695 0.2045694 0.13610767 0.19222379 0.24393433 0.24703285 0.33344343 0.33248514 0.19924533 0.39317527 0.4405061 0.212387 -0.023568377 0.16399138 0.05326103 0.21536702 0.26135573 0.33487585 0.178509 0.28735608 0.38294232 0.1763607 -0.067437604 -0.037175417 0.16862904 0.22371434 0.29562807 0.29281628 0.3039769 0.32534105 0.13614187 0.17812352 0.22506139 0.23891312 0.2869107 -0.13678086 0.31639948 0.29115415 0.21875909 0.14276075 0.09351135 0.02968111 -0.05817248 0.09873209 0.1307498 0.11221795 0.10302434 -0.1702785 0.34414893 0.38756308 0.30150008 0.16497195 0.093957245 0.07532215 -0.049876712 -0.3281197 0.36779588 0.42122295 0.34089077 0.24417451 0.1452943 0.052444868 -0.005647674 -0.061858997 -0.21901079 0.4194554 0.43415827 0.36369115 0.037970163 0.07241192 0.10953123 -0.0070726424 -0.07278335 0.02197326 -0.008748904 0.44083428 0.34510937 0.28215104 0.16581345 -0.030425072 0.45066634 0.38838315 -0.046607584 0.43937367 0.36207268 0.34890634 -0.05637324 0.42074633 0.4284085 0.3164469 0.28299448 0.26349956 0.0017260164 0.43487942 0.39026207 0.42096496 0.46676067 0.41783655 0.19874504 0.17492417 0.7021203 0.7297005 0.44275212 0.4870625 0.47547263 -0.08552064 -0.17370832 0.694171 -0.027422838 -0.25226778 0.71848977 0.33051604 0.2930794 0.64678 0.69511175 0.35085952 0.4929911 0.48107725 -0.015400099 0.53257406 0.64525115 0.38630423 0.50850374 0.51803005 0.54623663 0.57441187 0.065331936 0.27437603 0.4255029 0.5569776 0.6064191 0.615562 0.62360513 0.06837209 0.08254419 0.060322806 -0.08816318 0.4835748 0.55224514 0.5931052 0.61404395 0.6281444 0.10758887 0.5525929 0.5600293 0.57982874 0.08682875 0.24198051 0.2416732 0.3168516 0.25043628 0.32860392 0.26017204 0.484272 0.42772663 0.39102918 0.29537356 0.2664962 0.21184696 0.52221966 0.5347254 0.5312629 0.4836757 0.4990902 0.5628789 0.60032105 0.6136129 0.5615542 0.6084753 0.61064696 0.4684009 0.53706056 0.5669878 0.55976087 0.69514465 0.25839168 0.35354745 0.53100634 0.5521221 0.53291845 0.47161043 0.6420715 0.6470675 0.667624 0.6508638 0.55600226 0.18682139 0.09844618 0.48531157 0.45127523 0.6259911 0.53406197 0.56712663 0.2205875 0.41032153 0.39710227 0.27872404 0.37059015 0.50686574 0.3473882 0.33293375 0.35780352 0.3952499 0.39746028 0.32963938 0.011679079 0.24444193 0.15536243 0.382538 0.30902958 0.26286364 0.054226033 -0.257024 0.091009945 0.33494788 0.42352682 0.4888347 0.19498743 -0.111198366 0.06550653 -0.22010547 -0.30560407 0.009268384 0.09222117 0.12885678 -0.06348845 0.19315726 0.23121867 -0.19553247 -0.20998393 0.034816895 0.05479785 -0.2148568 0.41902876 -0.12154728 -0.19620728 -0.21611653 -0.07809882 -0.05968876 -0.22512288 0.5158254 0.5027581 0.4463172 -0.07241931 -0.08072144 -0.1940316 -0.34457722 0.3901829 0.55709463 0.48648047 0.123359464 0.026790414 -0.07381584 -0.12552203 0.6098274 0.57899487 0.51053137 0.39492124 0.21580344 0.18102077 0.4232335 0.51282394 0.44157866 0.26796564 -0.083324626 0.23735493 0.26161072 0.38992667 0.21772033 0.23343496 0.37896603 0.3807366 0.06440304 -0.23202679 0.3823989 0.4208617 0.43764067 -0.22275278 -0.17060976 0.5649047 0.40723816 0.3925236 0.35138083 0.16310108 -0.026946995 -0.022222007 -0.17391872 0.60351753 0.4312007 0.39843324 0.36999345 0.18965392 -0.04273007 -0.05379034 -0.21981353 0.42906952 0.3962373 0.36995575 0.40858543 0.36268178 0.2624427 0.4244123 0.3652593 0.37847066 0.5264776 0.038330834 0.10361236 0.3873482 0.38918507 0.36855996 0.45556146 0.04227359 0.07776159 0.16188215 0.14952333 0.43865454 0.44569135 0.49359488 0.4372616 -0.16614003 0.1713954 0.21687317 0.19437915 0.37352973 0.3913371 0.32053822 0.4580332 0.47941822 0.4973332 0.525921 0.47646028 0.54292935 0.56746066 0.5280807 0.55756354 0.589455 0.59857094 0.5781265 0.5651312 0.55352277 0.5730984 0.35658726 0.5198513 0.34641373 0.34507847 0.3381079 0.26679078 0.42796847 0.5260123 0.56118745 0.5568958 0.31106287 0.30544803 0.31308606 0.23235941 0.42560852 0.5559717 0.58205813 0.4746895 0.23470084 0.18743154 0.46111208 0.39724913 -0.06804661 0.22614259 0.36482292 0.38891977 0.117376536 0.3867079 0.37421614 0.5763533 0.2320191 0.32914618 0.2934521 0.3038062 0.340375 0.36317927 0.42356682 0.51945996 0.6011411 0.17542085 0.2554708 0.1381989 0.5265717 0.12878618 0.5493785 0.12905861 0.11723689 0.39876446 0.40689647 0.3205853 0.33663514 0.45243347 0.41342425 0.12678617 0.5384249 -0.44739574 0.60268986 0.19488618 0.6225736 0.6060423 0.14806443 0.31208116 0.6070006 0.58014166 0.51226616 0.38656124 0.06286602 -0.12257944 0.2256854 0.27833807 0.065798 0.31885585 0.25293705 -0.012877367 0.37367532 0.39273638 0.23483744 0.29515642 0.34048796 0.26483005 0.0148281455 -0.003717959 0.1811935 0.3302061 0.40904468 0.3962587 0.42323512 0.441997 0.43461037 0.39692563 0.44606382 0.43278474 0.4741269 0.44224393 0.48277277 0.49369955 0.50999874 0.4566369 0.4046015 0.2491255 0.47672993 0.50477576 0.47219896 0.41395378 0.19708362 0.23621829 0.31398797 0.4313036 0.47817236 0.32670158 0.32437608 -0.12005472 0.26549882 0.29795736 0.35222155 0.26897344 0.2958262 0.25743333 0.18457662 0.21055137 0.26700336 0.28080702 0.1470204 -0.07042493 0.4867584 0.4840507 0.49097246 0.5141344 0.5387054 0.5341017 0.4971496 0.49352422 0.52744436 0.5480452 0.35028175 0.37790012 0.37193814 0.46582073 0.33801195 0.2846396 0.43679565 0.5377137 0.48496777 0.50020313 0.542125 0.5585991 0.3708313 0.48050842 0.5251728 0.4038518 0.20595594 -0.049456388 0.18603706 0.047519114 0.2263978 0.25064301 -0.11873368 0.14996909 0.32240015 0.49498928 0.5618562 0.32932445 0.42841727 0.4278052 0.3993927 0.46321762 0.53549373 0.58305013 0.64088094 0.19048278 0.35317034 0.36323643 0.6615979 0.6890214 0.077318326 0.20080143 0.7026293 0.083781525 0.63416153 0.5228621 0.39513183 0.4342658 0.45422333 0.5199921 0.53057396 -0.0050122216 0.5944992 0.095934145 0.6149243 0.17482099 0.5801982 0.5544734 0.5000101 0.2508728 0.1730538 0.39020082 0.18625057 0.124931164 0.28640524 0.20849791 0.43458512 0.30874568 0.2956664 0.2548669 0.11898769 0.4051602 0.43131202 0.050855845 0.29121557 0.21565104 0.2126601 0.32203296 0.1173318 0.37991542 0.34800148 0.46485716 0.4604566 0.44397753 0.50629497 0.49899077 0.5325847 0.5033483 0.5387913 0.5157007 0.457996 0.48314813 0.49313664 0.41467884 0.31837934 0.44356465 0.47196272 0.48831996 0.2500265 0.20764086 0.18264814 0.077477716 0.27234033 0.3115446 0.3680034 0.4459272 0.49559984 0.2175124 0.401634 0.38822135 0.43448886 0.42852584 0.43536234 0.4452302 0.45165682 0.41029906 0.39006743 0.2470661 0.19735177 0.28992385 0.36616582 0.3465417 0.265448 0.123096645 0.14792116 0.5620613 0.614777 0.6044087 0.12268313 -0.021810036 -0.057287343 -0.031950075 0.2444855 0.53978455 0.5192083 0.136237 -0.122175 -0.048619397 0.40207857 0.18686536 0.10203404 0.13014007 0.41712126 0.41643366 0.46618992 0.5347842 0.56928664 0.5942152 0.46990806 0.44480085 0.46422505 0.57343256 0.6174934 0.65145046 -0.06110304 0.22739601 0.31511873 0.65379214 0.67572796 0.6831356 0.6455149 0.5431785 0.2727996 0.39171082 0.53278625 0.5719395 0.53107935 0.4723618 0.38645148 0.40844977 0.45315146 0.42796516 0.48055756 0.269903 0.29588962 0.4793448 0.32338503 0.33255225 0.4837314 0.21538098 0.39800894 -0.09007818 0.12381983 0.25130704 0.34444153 0.35489252 0.38775694 0.42152706 0.46071726 0.47710776 0.45799476 0.4411524 0.5277697 0.4779961 0.46642357 0.5495074 0.54210216 0.5121883 0.48719662 0.48120904 0.5095964 0.49086362 0.07267238 0.4372794 0.48021093 0.51154387 0.51310897 0.19830278 -0.028892756 -0.117727265 0.29829982 0.18683234 0.44467872 0.37437063 0.35361573 0.29575282 0.3811892 0.29380772 0.30674595 0.3301624 0.20163652 0.16024794 0.18205746 0.0046269717 0.7028197 0.69925183 0.6737143 0.07120035 0.6590053 0.6399816 0.6011404 0.1799412 0.19964248 0.11847091 0.0950698 0.108221315 0.57383674 0.18405741 0.17504126 0.40031868 0.23337059 0.19214037 0.27216256 0.4710505 0.53198874 0.5730897 0.59835756 0.123099126 0.42598057 0.42662495 0.3737775 0.46174508 0.6082903 0.6273129 0.09090852 0.63062906 0.65107036 0.051203027 0.058479376 0.64710236 0.5534949 0.48441714 0.34877193 0.38276255 0.15586305 0.31745815 0.22699872 -0.095544785 0.42772275 0.098194435 0.36393285 0.42573932 0.46929666 0.49569577 0.13819519 0.51336235 0.27646574 0.52049863 0.30441204 0.32936326 0.45051038 0.49563104 0.34928516 -0.086998045 0.3718414 0.13553423 0.1807782 0.36814022 0.32869855 0.31688857 0.37532222 0.3807338 0.3590271 0.45964542 0.42098653 0.40186486 0.53460616 0.4773753 0.4457115 0.45105374 0.08066192 0.2972567 0.43585622 0.4789177 0.46954167 0.2682879 0.36143705 0.41864282 0.46558547 0.47766256 0.43877703 0.20416717 0.5371255 0.5205928 0.5200068 0.48958236 0.39492372 0.30105126 0.354411 0.4043004 0.33460397 0.4509938 0.41967058 0.33645305 0.27213445 0.27940786 0.31305104 0.4159425 0.45140466 0.199596 0.27766946 0.14644897 0.1514512 0.2048835 0.23629196 0.4152341 0.41627282 0.3359298 0.15999112 0.75814176 0.7521819 0.71755296 0.40690038 0.29427344 0.2720555 0.22598544 0.118971966 0.19596174 0.7102386 0.6720746 0.6425151 0.18938676 0.19787718 0.54217106 0.48336375 0.20699711 0.54661554 0.21459363 0.3526195 0.3557962 0.31975496 0.42786327 0.49523112 0.5850878 0.6131151 0.16264758 0.11128786 0.28380635 0.2545218 0.2971732 0.62094724 0.6190795 0.061333384 0.6042675 0.49409345 0.5733714 0.38598204 0.10972957 0.096311435 0.20131928 0.3150675 0.17518249 0.07647125 0.22491856 0.1861403 0.09554631 0.28340918 0.3902459 0.46504432 0.28884023 0.5222714 0.5190444 0.25503498 0.5372752 0.53131527 0.19652866 0.5218215 0.25154367 0.40310702 0.4884043 0.31120837 0.016971871 0.25461915 0.2363616 0.14525238 0.6730878 0.23414925 0.1729497 0.7142267 0.2414462 0.270694 0.6498207 0.6044041 -0.021158308 0.20860448 0.27316967 0.3231562 0.32287487 0.34992567 0.37908548 0.004464403 0.13236825 0.18767907 0.17476285 0.23502721 0.3594471 0.29832605 -0.5334515 -0.0015619993 0.23952737 0.55510616 0.27718213 0.54970443 0.53103167 0.38653988 0.46945128 0.4187898 0.45518997 0.42462134 0.40723157 0.32607484 0.27614912 0.35086432 0.4539079 0.47154433 0.3422531 0.3574857 0.16891672 0.32450297 0.3249278 0.5085816 0.46644294 0.108364314 0.11012888 0.5057695 0.47533527 0.27449018 0.021680377 0.31523085 0.39560735 0.76847637 0.75822043 0.72651625 0.46224815 0.3983643 0.6916943 0.63686764 0.6102722 0.6116401 0.17360531 0.16974014 0.46850777 0.31167135 0.45481712 0.094382614 0.13327038 0.5506396 0.60631275 0.38835457 -0.16021809 0.0054001054 0.20530021 0.27073422 0.48968822 0.57747215 0.61390424 0.12116844 0.09658468 0.3868902 0.5477657 0.59008765 -0.06903573 0.035936713 0.4675759 0.47596484 0.30510375 0.16457859 -0.18419428 0.004408557 0.17565714 -0.09557334 0.17507067 -0.04325731 0.18992639 0.18666269 0.29632255 0.4084059 0.33112273 0.48868477 0.53300697 0.26711965 0.22210088 0.42943043 0.5177905 0.22847243 0.21269503 0.38016403 0.47342503 0.21340351 0.21634023 0.25095683 0.2665204 -0.25797278 0.73095274 0.61615443 -0.17747015 0.16961884 0.8160241 0.18491225 0.16989097 0.8070768 0.7791232 0.0704171 0.19004233 0.77631235 0.7325972 0.5311816 0.35645825 0.23529944 0.0884285 0.12848675 0.19059274 0.7422691 0.60880196 0.39504755 0.22044095 0.050312925 0.13141558 0.20188892 0.31364465 -0.010596976 0.50524974 0.5552635 0.26945403 0.53687286 0.5136499 0.4348982 0.47225016 0.44413394 0.47767848 0.44275814 0.3962875 0.3548196 0.28581285 0.36825344 0.4616686 0.48538876 0.48501676 0.5815034 0.54386663 0.5077608 0.57973087 0.53063834 0.45054975 0.4200266 0.4402307 0.57725656 0.56227726 0.46440226 0.3388238 0.40466303 0.48169488 0.36955696 0.49133992 0.57036626 0.56600386 -0.004544191 0.571131 0.4576621 0.4277873 0.73500395 0.7402209 0.7236284 0.5609809 0.4403594 0.6000307 0.6808472 0.6967946 0.69480574 0.5209421 0.34717587 0.59045726 0.60026294 0.6104183 0.35476935 0.41997093 0.7346202 0.57125866 0.39580992 0.7354541 0.68234783 0.6789409 0.6038023 -0.19908273 0.5128194 0.4266737 0.05789368 0.17118973 0.09480368 -0.21600619 0.16076966 -0.24030034 0.111635774 -0.1830157 -0.13554525 0.13370349 0.104670286 -0.11023276 0.12294149 0.28143936 0.2978304 0.31813467 0.39186472 0.33159238 0.44093072 0.3269613 0.2622565 0.36090562 0.40622243 0.1694455 0.1190128 0.17571524 0.2604943 0.37986976 0.15952133 0.077180766 0.16086191 0.184822 0.02622551 0.09682915 0.1579009 0.75224864 0.66949487 0.58334327 0.18063542 0.8107661 0.15937279 0.8311726 0.80982196 0.79618514 0.77233475 0.22524887 -0.009067856 0.7590959 0.72933424 0.38172945 0.29685375 0.29433495 -0.05242284 -0.08269288 0.034840267 -0.19409584 0.19321996 0.017011583 0.36656016 0.47976017 0.36026818 0.43810284 0.43855345 0.41844624 0.38224897 0.19968179 0.48206508 0.3831522 0.3720449 0.2921687 0.24862696 0.3514629 0.46577215 0.5052914 0.49941903 0.62844193 0.6070901 0.5749982 0.49416697 0.47111452 0.61276174 0.60239613 0.44504178 0.48543832 0.5219855 0.5311744 0.4720049 0.5723301 0.5520897 0.5213746 0.0024668872 0.26674202 0.5673286 0.17505437 0.3637107 0.40380806 0.5566457 0.3627218 0.63737476 0.5147905 0.56710553 0.6851103 0.4229064 0.28173158 0.1938461 0.39426664 0.41485858 0.8863617 0.8111254 -0.06427582 0.01866269 0.19398457 0.8319858 -0.014641032 0.7334999 0.64270365 -0.022898383 0.6539663 0.5352439 0.4381656 -0.2543943 -0.2566311 0.3469825 -0.22877514 -0.19664472 0.34483814 0.0036507621 0.38645303 0.115599826 0.26010567 0.091691844 0.24764508 0.014515929 0.28841752 0.24887371 0.32308966 0.19942316 0.23339757 0.36374986 0.008876972 -0.051413663 0.1615844 -0.048919186 -0.035721164 0.10971024 -0.091475576 -0.061577562 0.17167942 0.6793556 0.50889313 0.20803884 0.19716284 0.7795162 0.68985444 0.18115714 0.79936963 0.8025342 0.052381024 -0.043872986 0.7962525 0.79046786 0.17876689 0.15014875 0.768016 0.73220855 0.60666823 0.28886747 -0.008023411 0.11955101 0.18375048 0.2047501 0.6993903 0.6449871 -0.25531262 -0.16224784 0.050284497 0.083809786 0.03421174 0.3555737 0.32613397 0.35342073 0.31675887 0.23243213 0.44540495 0.33396357 0.22233997 0.12423895 0.172928 0.4924227 0.48021346 0.20631477 0.48468718 0.51516014 0.49989396 0.6502458 0.60319805 0.5682434 0.65303504 0.651093 0.5723632 0.5180615 0.5002521 0.5247632 0.6355539 0.5351673 0.56492066 0.5423282 0.5135258 0.43197817 0.4395553 0.5302359 0.416186 0.2802339 0.3493901 0.5188098 0.4953062 -0.1553754 0.0041787326 0.47250187 0.27237308 0.30195647 0.46485293 0.26127806 0.8185598 0.7935718 0.49332708 0.40936786 0.19200328 0.8855601 0.035441466 -0.10221408 -0.069757454 0.9518843 0.028023263 -0.09201945 -0.038414065 -0.021330953 0.8702048 -0.046110585 0.018874422 0.20877446 0.64229 0.61470556 0.45554057 -0.11531073 0.0025435388 0.34217408 0.019572899 -0.09534496 0.39494884 0.5181547 0.4406533 0.50930274 0.44300896 0.023416925 0.5046852 0.44106153 0.19842975 0.46568596 0.34924832 0.4647315 0.092080355 -0.035862144 -0.047878925 -0.07731267 -0.16203909 -0.1483539 0.06669304 -0.12809005 -0.12843584 -0.092384964 -0.091806814 0.039