# vtk DataFile Version 2.0
Really cool data
ASCII
DATASET POLYDATA
POINTS 4139 float
2.3225675 48.04096 11.066627
2.2693639 47.770454 11.534241
2.356598 47.56326 12.319626
2.4276352 48.003242 12.829336
2.3250256 48.487526 11.116299
2.2342021 48.506992 11.641068
2.3543453 48.740646 12.323551
2.3701963 48.18705 12.817535
2.3202124 48.955486 11.653123
2.3471024 48.97369 12.1543045
2.3933947 54.77466 15.719794
2.2069716 54.9555 16.391165
2.3374496 55.062374 17.121954
2.1211889 55.607647 15.742272
1.9661496 55.73 16.486238
2.1162007 55.725746 17.167837
2.116665 56.26055 15.751359
1.9858042 56.399433 16.395386
2.1564314 56.4347 17.26008
2.3387797 56.902103 15.745787
2.210021 56.98225 16.344946
3.2620902 40.887226 4.9309916
3.1632082 40.87567 5.512284
3.3064027 40.77931 6.222751
3.1461 41.458836 4.7980537
2.973046 41.518223 5.5524974
3.027669 41.62172 6.428055
3.3344173 41.262188 6.9411855
3.1891363 42.210293 4.836155
3.0241542 42.247517 5.546517
3.0469186 42.5948 6.2817564
3.3818352 42.79051 7.7691674
3.3368826 43.405525 5.434378
3.4370334 43.215294 7.898876
3.2494082 43.68323 8.591871
3.1064162 44.082214 9.933767
3.416863 44.143898 13.826891
3.372957 44.15962 13.986567
3.3222048 44.704365 7.1924944
3.0349152 44.381275 7.672416
2.9428341 44.6004 8.375083
3.078525 44.642338 9.523881
3.1263819 44.287674 10.410974
3.2231064 44.671864 11.153389
3.1079724 44.723343 12.545302
3.1114929 44.63395 13.396954
3.1652548 44.86863 14.099878
3.1496072 45.119755 7.8355694
3.0123043 45.101643 9.248322
3.1906095 45.090878 10.130985
3.1797516 45.47722 11.110078
2.947604 45.53643 12.570534
3.0077932 45.260143 13.7194
3.0750933 45.703773 14.17818
3.3140593 45.60086 15.023143
3.0553472 46.99012 10.908192
2.6691158 46.743477 11.768522
2.732792 46.446556 12.309507
2.815133 46.423004 13.162982
3.1849163 46.294785 14.430066
3.3689513 46.480103 15.206014
2.4923816 47.689983 10.936521
2.4567018 47.249607 11.756377
2.5364878 47.27682 12.688668
2.559132 47.424744 13.026279
3.138369 47.043068 14.311949
3.0086212 48.71439 10.177904
2.592249 48.398136 10.677375
2.5129402 48.610607 13.106474
3.4787202 49.600334 -4.656245
3.1070535 49.102627 10.28045
2.817588 49.27925 10.661351
2.4962888 49.413116 11.403733
2.5574799 49.41163 12.278691
2.69195 48.978077 12.9707575
3.173202 49.628296 13.819506
3.077418 49.876038 10.98305
2.8763118 50.00175 11.911894
3.0295503 50.372406 12.660548
2.9382663 49.97556 13.156472
3.0886004 51.69807 12.747569
3.2201765 51.394623 13.063618
3.2313364 52.06601 12.520873
3.463567 53.819588 11.886058
3.3694363 53.706627 12.798688
2.9383252 53.766743 14.839203
2.879005 53.91641 15.607386
2.928668 53.554092 16.696371
3.0347376 53.591858 17.121851
3.1766443 54.20826 17.726213
3.403987 54.523643 12.0610285
3.1143293 54.21322 13.066555
3.0482666 54.435608 13.808192
2.614279 55.026848 14.735964
2.5471017 54.5644 15.685347
2.6206763 54.189064 16.17464
2.7772806 54.35323 17.237503
3.241534 55.10078 12.731392
2.9784644 55.47109 13.688858
2.623826 55.608776 14.53646
2.4467537 55.516575 17.612883
2.7187498 55.57322 18.076452
2.9400623 56.05255 13.925287
2.6169477 56.152256 14.683844
2.6287932 56.3321 18.069403
3.2355456 56.07225 18.73557
2.6905675 56.894947 14.963381
2.6538694 57.157715 15.648637
2.5032015 57.32361 16.449348
2.7005575 57.244923 17.431297
2.6879542 56.95264 17.906263
3.0759017 57.79362 16.298473
4.316033 39.30528 5.762558
4.31803 39.338314 6.114357
4.153715 40.0489 4.843061
3.8065422 39.955505 5.786869
3.9444957 39.768986 6.2202325
3.998356 40.039635 6.80998
3.760926 40.928535 4.3402543
3.6511862 40.69096 4.70516
3.5432487 40.419468 5.2800293
3.5671566 40.43117 6.3860784
3.6679893 40.702393 7.055808
3.6111538 41.60067 4.2545214
3.412241 41.54795 4.4722047
3.7382648 41.17707 7.6048517
3.9760935 41.258244 7.8583236
4.159922 42.08965 11.657838
3.951582 42.55651 4.129334
3.5101335 42.604694 4.51335
3.8232074 42.978603 9.979521
3.8235958 42.8986 10.167515
3.8764338 42.881477 11.23437
3.9337952 42.44766 12.266165
4.041187 42.95254 13.2831745
3.9962106 43.076656 4.225629
3.566847 43.095104 4.682344
3.48264 43.359295 5.1780553
3.6145039 43.55723 6.441524
3.5115347 43.492214 8.950256
3.5373683 43.29091 10.025335
3.6354835 43.23732 10.986209
3.607473 43.57066 13.583364
3.9283073 43.49003 14.397421
4.1939383 43.691048 15.574931
4.211377 44.001194 16.061743
4.048195 43.880062 4.2336454
3.8840063 44.298046 4.95539
3.625522 44.09111 5.301966
3.5568216 44.25431 6.896081
3.707002 44.56934 15.24452
4.007731 44.81547 16.240284
4.388186 44.865215 4.7398467
4.2165947 44.811348 5.4004407
4.1452575 44.910603 6.594843
3.4023623 44.954826 7.3215485
3.5739813 45.70471 15.410897
4.308498 45.83669 17.316702
4.2528305 46.036167 17.805393
4.4524446 46.64856 3.5126066
4.479372 46.086647 4.1360507
3.7309048 45.78063 7.932022
4.139875 46.64469 8.907126
3.693188 46.074043 9.284731
3.9609592 46.49663 17.400787
4.025201 46.843384 18.102219
4.2403708 47.2293 19.646955
4.2181163 48.254925 -4.5676594
4.4893045 46.92967 3.5517035
3.5946994 47.955204 10.027647
3.8563938 47.778168 15.8237
3.7873392 47.46274 16.51703
3.6897807 47.509727 17.794733
3.7009873 47.666794 18.347391
4.0517855 47.538944 19.483412
4.2117143 47.707737 19.882008
4.2915297 49.049126 -5.7490335
4.009506 48.793343 -5.0939717
3.919488 48.65847 -4.5275164
3.9747393 48.821705 -3.7796054
3.863534 48.37995 9.717133
3.7135065 48.1154 15.597606
4.1183567 48.696873 16.25199
3.617663 48.414406 17.82722
3.686709 48.479874 18.632053
3.910657 48.39999 19.402113
4.175732 48.23415 19.909475
4.1070495 49.90208 -5.838894
3.7399654 49.557972 -5.2422853
3.584897 49.513596 -4.544034
3.7342875 49.564465 -3.7987719
4.1220603 49.59836 -3.235436
4.0032706 49.5985 9.99721
3.8090348 49.733433 14.6133
3.9155843 49.55516 17.760387
3.9098177 49.74345 18.10477
4.1107197 49.199 19.365545
4.1264806 50.318142 -5.7097793
3.7715986 50.312767 -5.242988
3.6104622 50.312576 -4.6096754
3.7973287 50.192425 -3.8120956
4.128391 50.188663 -3.2206504
3.8838863 50.20112 10.477088
3.6551404 50.494865 14.18174
4.450424 50.67655 16.440075
4.344463 50.732994 17.859735
4.2407713 50.35522 18.313807
4.057187 50.861847 -5.2197614
3.9252703 50.891376 -4.562048
4.1541457 50.87436 -3.934775
3.5014696 51.83955 14.181386
3.8989906 52.039143 14.935653
4.2232733 51.789692 17.09754
3.7155838 52.176777 11.488192
3.390366 52.905224 16.77359
4.0585275 52.649834 17.489773
3.6094935 53.3658 11.716872
4.3912106 54.919914 7.9386134
4.2096753 54.827076 8.779236
3.6369789 54.37874 11.513996
3.509519 54.816086 18.259663
4.0753913 55.344524 8.142864
3.8683295 55.78661 8.537501
3.9172182 55.525494 9.419142
4.1405153 55.478893 10.320675
3.9504182 55.602497 11.793137
3.5084057 55.688023 18.739643
4.211567 56.71709 7.1088405
3.9601705 56.68544 7.638642
3.7875783 56.5759 8.471194
3.9251091 56.551853 9.314144
4.302353 56.029243 10.342467
3.718583 56.168472 12.559024
4.055986 56.87369 19.36653
4.174639 56.85922 20.409277
4.3191743 57.010315 20.874271
4.1375337 57.53496 7.1126866
3.864827 57.471817 7.6600313
3.828607 57.584545 8.282969
4.020461 57.239773 9.25308
4.2374773 57.013935 9.900101
3.455698 56.9995 13.498365
4.0097 57.38557 20.387407
4.2991962 57.64421 20.888641
4.064849 58.07552 7.6662474
4.052723 58.145832 8.192874
4.1620674 57.853672 9.014568
3.9075322 58.193874 13.7964945
3.7645597 58.24375 14.39572
3.830768 58.34397 15.46476
3.6359985 58.144222 17.186878
3.9901352 58.540398 19.411871
4.1383533 58.102787 20.321394
4.3014445 57.960598 20.874523
4.0935197 59.331253 17.618357
4.0861187 59.629604 18.309416
4.2528625 59.496727 19.266497
4.2379723 58.82821 19.9847
4.3647943 60.021877 17.995226
4.312515 59.98582 18.564993
4.3405967 59.88762 18.948423
4.724693 39.20492 5.201732
4.8212495 38.98756 5.7511487
4.6318755 39.02921 6.363652
5.007197 39.050014 7.1067863
4.7342734 39.753555 4.7514343
4.447695 39.424786 5.320272
4.4651337 39.488865 6.9623027
4.404888 40.616936 4.2382393
4.4412537 40.387684 7.6285033
4.7973304 40.70255 8.565259
5.1998563 40.600742 10.857418
5.3303175 40.537888 11.470093
5.1310635 40.980305 12.375925
4.7406936 41.695896 3.8389516
4.7390823 41.887318 8.812338
4.464894 41.83532 10.625538
4.547857 41.551506 11.461621
4.9388227 41.53008 13.205971
5.2185493 41.72404 14.015405
4.461094 42.33681 3.8471522
4.7117605 42.76524 15.383998
4.9904113 43.0338 16.36449
5.2868648 43.21156 17.12367
4.5090585 43.52244 3.9771051
4.8832436 43.83571 17.172115
5.303868 43.648544 18.20805
4.646378 44.489628 4.1190057
4.6197195 44.72588 17.570612
5.085908 44.806587 18.092806
4.8661823 45.735867 2.669563
4.6239705 45.573166 3.481425
4.5439763 45.722115 17.634445
4.8735733 45.25244 18.019375
4.5853243 46.75358 2.7111433
4.522802 46.484364 3.3421302
4.639637 46.793842 4.6647596
4.724942 45.95315 7.7415595
4.604608 46.59313 9.045902
4.389337 46.820038 19.084337
4.500388 47.174263 19.866608
4.6702695 48.165493 -5.2651734
4.615048 48.008087 -4.423599
4.688383 48.069313 -3.8879983
5.173284 47.280304 1.9904687
4.812954 47.099766 2.362098
4.5327315 47.028748 3.4267778
4.65943 47.256527 4.362351
5.3952274 47.76043 8.800788
4.6099153 47.68164 20.151478
4.899169 48.74765 -6.1849556
4.5920663 48.554024 -5.6456347
4.39917 48.47204 -3.5184736
4.609981 48.863377 -3.0666318
5.1456485 48.001476 4.3708897
5.0013213 47.81851 4.8781147
4.6649423 48.265305 20.237946
5.130442 49.454086 -6.6858444
4.780748 49.466434 -6.368715
5.376083 49.681473 4.513198
5.3833327 49.616863 5.60297
5.3896227 49.40431 7.4616437
4.7134094 49.19367 19.964293
4.659485 50.234425 -6.1427627
4.614384 50.222317 -2.951111
5.3859262 50.69432 0.8450167
5.204023 50.83088 1.6044089
5.325493 50.581467 3.0391717
5.2405467 50.46948 3.8807983
4.964249 50.727356 4.3330755
5.1710196 50.61983 5.7631664
5.3133636 50.354954 7.5172677
5.3693194 50.683586 8.473227
4.537553 50.24925 19.211748
4.9920897 49.861786 19.76486
5.0963883 50.909317 -5.9924393
4.5032287 51.074512 -5.4031515
4.608757 51.273212 -4.4917507
4.5394163 51.01641 -3.692355
4.786767 50.82501 -3.106707
5.2679644 51.833176 0.9605708
5.1027794 51.66339 1.5835807
[...]
POINT_DATA 4139
SCALARS features_00 float 1
LOOKUP_TABLE default
0.47893262 0.44086784 0.383371 0.36706918 0.48798484 0.4598862 0.41587776 0.37675726 0.45938122 0.4224286 0.4063839 0.46751142 0.48712376 0.46692693 0.54140955 0.5566349 0.4911575 0.5545839 0.5956044 0.47548425 0.5309516 0.6032594 0.59309167 0.53440106 0.59874177 0.60435414 0.5239105 0.43185103 0.53395766 0.53665173 0.44140726 0.26133567 0.32107842 0.27461645 0.27595162 0.22337641 0.19506964 0.1944456 0.28438947 0.33621347 0.368407 0.2847272 0.20479995 0.15029046 0.1697981 0.19605651 0.19590573 0.3508959 0.34150523 0.22866206 0.113144025 0.15926422 0.18995172 0.1801916 0.17837758 0.3486668 0.29841956 0.23360649 0.19999525 0.15800413 0.13240574 0.4616323 0.38091964 0.32146102 0.30021754 0.13804737 0.45913747 0.49317682 0.3397314 0.87348706 0.45794427 0.4843384 0.4644562 0.38751572 0.3378811 0.17882031 0.44965214 0.36661714 0.23173578 0.23275404 0.12278775 0.10848153 0.12763157 0.090682596 0.08981378 0.2280433 0.32100752 0.33405527 0.33674204 0.37360382 0.097023524 0.13159096 0.1919694 0.31965303 0.3870256 0.3903273 0.4129626 0.14307566 0.21518397 0.32699272 0.51076806 0.46950364 0.25673255 0.36446577 0.52576405 0.3668233 0.3844722 0.43277133 0.5018314 0.5502275 0.5499024 0.39283052 0.4758362 0.4628181 0.524635 0.52545446 0.4885823 0.43410933 0.57425916 0.58196187 0.5715977 0.50125444 0.41419604 0.56942034 0.5829854 0.3084575 0.24866396 0.12839834 0.48757973 0.48331574 0.12826319 0.12176451 0.12791836 0.17965096 0.21050361 0.4180725 0.40640554 0.34006876 0.26424468 0.21739498 0.16470324 0.14896026 0.19003244 0.17260398 0.1692297 0.16322377 0.28240472 0.19201732 0.21294509 0.2515785 0.18983355 0.15987173 0.092790805 0.111415826 0.18818744 0.2907441 0.16827379 0.11057742 0.13805535 0.24442397 0.17707479 0.27637982 -0.02573475 0.2735131 0.16604894 0.2533542 0.43107802 0.68895805 0.23904772 0.34106687 0.11682448 0.18141928 0.29520202 0.37624222 0.45737493 0.50561786 0.6971196 0.7392192 0.76700056 0.80055535 0.27675885 0.06626182 0.119316705 0.3551666 0.4808272 0.541712 0.546332 0.77524334 0.81907475 0.8694526 0.87150294 0.8399811 0.3122155 0.037444886 0.32970744 0.39956886 0.55888 0.8075548 0.8662712 0.9048556 0.8830694 0.8350828 0.28353012 0.045994803 -0.031416863 0.27082166 0.39816394 0.8625065 0.8969484 0.8669102 0.0004831031 -0.0637421 -0.037467986 0.12865278 0.22633266 0.17563218 0.10196416 0.18637261 0.2002663 0.07174933 0.35857284 0.30255145 0.41728038 0.34152907 0.20017841 0.030873612 0.32532996 0.5742922 0.5919172 0.5576998 0.46957648 0.27323115 0.15276001 0.4180929 0.59330386 0.67610884 0.6974156 0.6899549 0.6459559 0.5180785 0.42241 0.26156798 0.6116828 0.70202136 0.7024596 0.656587 0.5589441 0.27678508 0.29042554 0.2830549 0.35155642 0.5186671 0.64593196 0.7040663 0.3995819 0.48212647 0.55150664 0.59941137 0.47666126 0.52340424 0.54509413 0.45248723 0.43155417 0.42328912 0.34946567 0.4635216 0.4817143 0.39402837 0.52072346 0.2952781 0.09274219 0.08422642 0.13996671 0.16619726 0.5138009 0.0093930485 0.0560434 0.12742981 0.17547873 0.14229283 0.49314123 0.12391781 0.12111591 0.13967986 0.32974896 0.120066494 0.1602625 0.15691924 0.09240869 0.090751365 0.3294555 0.21134949 0.10588402 0.089964986 0.29799402 0.25915146 0.17452973 0.09458931 -0.094742395 0.30413562 0.425031 0.60142505 0.60593665 0.60355026 0.23400968 0.28442827 0.24381524 0.19883269 -0.31774527 0.49876702 0.6159167 0.63935524 0.7057111 0.72767335 0.1279792 0.091905855 0.528635 0.6455025 0.67219806 -0.0524062 -0.027590767 -0.051655114 0.51025385 0.74467367 0.77979165 0.36509493 0.32581317 0.1457332 0.07573104 0.110305175 0.08428456 0.024567317 -0.079739526 0.46077818 0.42492816 0.7357538 0.81619436 0.8519326 0.82244885 0.76461124 0.4769051 0.42372885 0.3752048 0.26121026 0.17042351 0.096288376 0.03378871 0.34936327 0.359095 0.46352586 0.39986384 0.25120702 0.19544467 0.08403702 0.05179361 -0.06670026 -0.15456817 0.46259558 0.25959003 0.1844127 0.1920191 0.118791744 0.08595262 -0.0026938394 0.021615798 -0.0498742 0.22508435 0.20500137 0.2018236 0.12471006 0.23885424 0.5717632 0.652681 0.4579246 0.63772196 0.7089242 0.6286985 0.4156068 0.26419377 0.73325586 0.6749686 0.6938115 0.6391625 0.5263983 0.45036858 0.22756875 0.23307934 0.67358124 0.7231891 0.6692644 0.6198704 0.49942738 0.20085311 0.21156755 0.6028625 0.3531603 0.48331013 0.52971494 0.5568176 0.5789913 0.5007844 0.5296112 0.330696 0.2667529 0.1553586 0.37007576 0.3788445 0.35661215 0.23346005 0.14952531 0.15310848 0.15868089 0.3248154 0.38589787 0.14941323 0.088500604 0.12393088 0.14578472 0.14139013 0.13798887 0.3382463 0.13814627 0.41208038 0.15047732 0.123163015 0.5657131 0.58908504 0.6528944 0.4273247 0.2706925 0.4198026 0.50974643 0.58202684 0.39587593 0.51251686 0.17065822 0.22648367 0.3026152 0.41993168 0.08323297 0.21319863 0.15853034 0.20941088 0.19675824 0.22102264 0.52452594 0.4934066 0.29728088 0.1962697 0.07251629 0.08712184 -0.287623 -0.312614 0.425463 0.5709667 0.5496621 0.13933045 -0.07967381 -0.039607022 0.09890237 -0.020520113 -0.1247397 0.45576388 0.63775665 0.5540291 0.11955446 0.0287558 -0.034097083 0.39527455 0.68328977 0.705819 0.36982828 0.15667003 -0.32390758 0.31540725 0.31653374 0.6779673 0.72788894 0.7668719 0.45756143 0.4923182 -0.1252626 -0.3731754 0.3144609 0.4942437 0.49631137 0.12623988 0.49997723 0.4292302 0.37657738 -0.21867616 0.38121605 0.29036823 0.19086026 0.15982264 0.15299007 0.22397643 0.24037601 0.52197635 0.6373342 0.2703783 0.7137894 0.7384658 0.4975589 0.7510517 0.75193805 0.5388242 0.30114597 0.7170729 0.5087892 0.603525 0.5887931 0.49919394 0.40551257 0.11790472 0.16466762 0.5858011 0.64780104 0.50780356 0.15812847 0.25035298 0.31038335 0.5520221 0.5676123 0.2664545 0.35655737 0.42330953 0.52622205 0.24377765 0.24868743 0.25062895 0.17251477 0.14549834 0.15913787 0.16787711 0.27736986 0.24298997 0.16730508 0.14002463 0.1388629 0.16840795 0.13806939 0.14667088 0.15439725 0.14045826 0.64604616 0.6805156 0.7045679 0.54165864 0.6191412 0.65714085 0.6902049 0.6848853 0.6379529 0.6252389 0.513165 -0.13799365 -0.009842092 0.10942446 0.43145025 0.022083595 0.17345478 0.18272972 0.06623222 0.021514256 0.35002267 0.24489912 0.22568099 0.011442065 0.047284693 0.13536021 0.19828801 0.3942303 0.13443848 0.50953996 0.60091954 0.1715454 0.6080804 0.39984262 -0.38343656 0.1586387 0.6263322 0.65118694 0.6153093 0.5128752 0.5639529 0.36111277 0.4786489 0.44510162 0.45799822 0.42413816 -0.30804527 0.35337955 0.16464265 0.12747833 0.03503564 0.19451593 0.5223253 0.25214365 0.7053107 0.2845609 0.2826379 0.7284075 0.40134418 0.6689825 0.47646546 0.53241545 0.25960833 0.53391856 0.5918533 0.50697106 0.49309897 0.34844348 0.07140458 0.1083373 0.15342396 0.53433007 0.51961446 0.54178274 0.21873167 0.3478064 0.5086124 0.47609922 0.40288794 0.48092663 0.47837394 0.16700551 0.17849775 0.21716402 0.1827625 0.36192444 0.32726654 0.10832094 0.15726599 0.17156634 0.11876756 0.15612769 0.21828511 0.2077357 0.17644143 0.13201332 0.24730399 0.1788565 0.14223117 0.70289993 0.72171044 0.3287444 0.29752105 -0.017064404 0.34430203 0.45740882 0.7146406 0.69678247 0.27966312 0.26953113 0.21710002 0.13621604 0.60427547 0.1364847 0.12164262 0.48637313 0.44220597 -0.02597025 -0.1495968 0.38716027 0.38653576 -0.07609989 -0.03400048 0.29749817 0.16850209 0.044513237 0.34732756 0.12569788 0.044011407 0.5459601 0.44390044 0.43964747 0.34436643 -0.06560274 0.30984998 -0.24069262 0.35187665 0.25935224 0.23532623 -0.13631192 0.2033759 0.11944739 0.1447045 0.19156957 0.2543678 0.29732665 0.2134679 0.43071955 0.42368183 0.19412762 0.056398124 0.36419767 0.38764668 0.4315316 0.30916476 0.21273008 0.086240076 0.060755134 0.09346733 0.40721333 0.47561055 0.5206363 0.50087553 0.35963362 0.42864186 0.47264427 0.40870357 0.026053283 0.04797759 0.32555807 0.2941106 0.038734425 0.008679293 0.037633337 0.23310265 0.23841515 0.2156713 0.22580633 0.0151116885 0.3166793 0.25086775 -0.02635936 0.6706705 0.7032398 0.32121146 0.33135083 0.48199797 0.6046973 0.56554484 0.6233268 0.26088575 0.26533154 -0.19117913 0.5366025 0.5475971 0.20493239 0.481245 0.4486999 -0.039455835 0.33352873 0.18420203 0.13264547 0.012279611 -0.061878763 0.18072358 0.096679896 0.17137836 0.15146488 0.084331565 0.033124156 0.13775274 0.10133217 0.16963333 0.23134017 0.12482455 0.16257903 0.24677971 -0.016855683 -0.10081573 0.20844047 -0.36057946 -0.3086906 0.16455668 0.23613822 -0.31921744 -0.29762667 0.07760092 0.21491154 -0.23113523 0.14119093 -0.16603185 -0.1300531 0.19307387 0.13762352 0.026016347 0.06345244 0.054774478 0.11295766 0.15315107 0.17823888 0.24139227 0.29528195 0.024953611 0.30467504 0.18070985 0.094489016 0.08243551 0.10157466 0.16569537 0.46766338 0.5023241 0.3900248 0.46124175 0.506188 0.50164795 0.11779724 0.18464886 0.39565647 0.60300267 -0.022124276 0.09504562 0.37488407 0.60242856 0.62170696 0.101643346 0.058876015 -0.07320743 0.55874133 0.5823311 0.21676378 0.20949098 0.0740637 0.4978234 0.16731238 0.06398948 0.15188245 0.18407618 0.2859377 0.25863808 0.2593976 0.27094054 0.09705658 0.3921172 0.39699212 0.2760624 0.24931175 0.43955112 0.34040982 0.17861015 0.34081784 0.3625608 0.3096062 0.26411012 0.17535645 0.25449705 0.18091719 0.19125767 -0.017396726 0.13769303 0.10006258 0.29854894 0.116267234 0.15487419 0.59635943 0.4393039 0.5993418 0.3336159 -0.31502104 0.26060134 0.22915271 0.17288697 0.009125151 -0.052231103 -0.23411113 0.46990275 0.4992283 0.27940124 0.3425938 0.35230362 -0.09454171 0.44370335 0.5209755 0.56105965 0.44078743 0.09481713 0.4468044 0.5427531 0.54562056 0.2920183 0.19202906 0.2976839 0.17783207 0.04702279 0.06986408 0.16779056 0.1655943 0.18791392 0.20661302 0.20687267 0.14678976 0.20704626 0.24214739 0.12725115 0.24731734 0.18529046 0.1357385 0.27620646 0.62863827 0.68168485 0.7667459 0.7819495 0.752106 0.80590045 0.40629232 0.4686119 0.5141609 0.5239121 0.1975014 0.2505504 0.31468078 0.4683239 0.507907 0.43673214 0.09203326 0.13784125 0.23911195 0.4316901 0.53260034 0.60434026 0.62078404 -0.066504076 0.32991755 0.62560034 0.09748328 -0.030450433 -0.14938179 0.5734821 0.58809024 0.12741897 0.4905304 0.41207486 0.03341172 0.13468488 0.3056628 0.2291812 0.21681367 0.18118964 0.21141456 0.21978763 -0.102269135 0.27422646 0.20076057 0.40430018 0.39683223 0.31790447 -0.075372405 0.24588934 0.40353674 0.3308424 0.38694715 0.39025664 0.27955255 0.24960977 0.008255973 0.24835488 0.17752996 -0.01730357 0.6535952 0.3900476 0.05298605 -0.026304215 0.8198755 0.7051387 0.48583108 -0.11600133 0.8337935 0.6935401 0.18051198 0.7628524 0.37005496 0.39398056 0.7731639 0.66914177 0.43779615 -0.08422506 0.4509167 0.46404374 0.21861559 0.11591672 0.019049443 0.56847596 0.5238446 0.49551865 0.49165797 0.43954846 0.3629732 0.33443826 0.06477547 0.5031738 0.5558241 0.5429573 0.51775587 0.49117696 0.45338422 0.35949522 0.28822464 0.2950651 0.27955616 0.48474607 0.5122051 0.33820856 0.35086018 0.32830492 0.26782596 -0.045283824 0.17199357 0.22491066 0.20329957 0.15808149 0.23038855 0.22531222 0.19330186 0.21889576 0.21814136 0.21643361 0.23395197 0.14907633 0.118433826 0.5808014 0.6148268 0.74914694 0.71088386 0.7755003 0.82303894 0.8252647 0.7802241 0.80525136 0.83634824 0.839875 0.42122597 0.47141105 0.5357754 0.546813 0.14532645 0.19518706 0.2410563 0.34600854 0.5164547 0.07965087 0.12153876 0.34370494 0.53633565 0.5807991 0.6163883 0.043272216 0.6245898 0.60587144 -0.10272916 -0.06743352 0.5830523 0.01835185 0.0032242164 -0.06639087 -0.1483969 0.22901985 0.16997856 0.019761063 -0.13273098 0.22922581 0.19884712 0.008998159 0.33467922 -0.1440422 0.29742438 0.4369783 0.4426039 0.43983263 0.34357458 0.47987235 0.55994135 0.43187416 0.5545956 0.61181384 0.37555444 0.4257669 0.24126306 0.26193896 0.36205927 0.032034405 0.82918847 0.7837681 0.57781476 -0.09635606 0.89408255 0.70872474 -0.16177821 0.0030225376 0.94512147 0.1581761 0.16174366 0.9381875 0.27904898 0.31699705 0.75927246 0.6946249 0.42927533 0.5309688 0.52324224 0.5378673 0.5786358 0.57093406 0.5146063 0.45000318 0.39684144 0.2390711 0.33894596 0.31366274 0.28526837 0.2708068 0.24502419 0.41447785 0.49260572 0.34632003 0.35945195 0.3596786 0.35085475 0.27970704 0.0326308 0.26066202 0.22849658 0.19984466 0.15909636 0.17845887 0.23226 0.1959056 0.21158944 0.2278142 0.18162471 0.05385144 0.17668986 0.23268698 0.5681696 0.5403108 0.64227015 0.7415835 0.63399774 0.7240151 0.8179122 0.78330904 0.75450027 0.79277456 0.8308524 0.8287209 0.55619955 0.11844266 0.40911973 0.50128156 0.4900796 0.085141614 0.36071822 0.42563945 0.56759053 0.575094 -0.10562433 0.6046841 0.27167654 0.28047845 0.2695157 0.40880772 0.21486422 0.25248122 0.2494466 0.19521007 -0.18362692 0.025129724 0.05532002 0.065698385 0.052539874 0.071397796 0.33671162 0.20244655 0.4168864 0.3359233 0.47832793 0.5805272 0.44018656 0.61722445 0.6779791 0.40887532 0.425017 0.66205573 0.34373578 0.4717785 0.6145015 0.23285463 0.3039522 0.29210258 0.34581673 0.22641268 0.25685924 0.85068774 0.79776096 0.66605806 0.4776551 -0.15725431 0.9366801 0.026243959 0.9865671 0.19215487 0.9004487 0.7794573 0.70986634 0.60572857 0.33719012 0.5750449 0.43436727 0.36232272 0.42811012 0.4983551 0.4610328 0.474273 0.580889 0.59947425 0.5759716 0.46893078 0.34927475 0.24368262 0.22171459 0.32927167 0.18234435 0.14730804 0.3366741 0.32277077 0.30709094 0.3475721 0.3530063 0.22113028 0.14572498 0.16480222 0.12501359 0.15270045 0.17891306 0.18335651 0.20709988 0.18705261 0.2223514 0.13744858 0.23848689 0.3090152 0.010325588 0.34756762 0.57056534 0.45545113 0.5298443 0.75463325 0.6993721 0.680272 0.7392005 0.77533257 0.79880726 0.761263 0.7809489 0.80423814 0.81564164 0.3830891 0.25313407 0.24264744 0.055113483 0.03023896 -0.14654498 0.2838369 -0.044964373 0.23457408 -0.016021721 -0.2472617 -0.05561096 0.459778 0.28128493 0.28950822 0.26134318 0.18016434 0.37217426 0.22601208 0.22459626 0.04183167 0.02469595 0.37324488 0.15581484 0.09137998 0.41149116 0.2632635 0.40065613 0.60161555 0.64442563 0.43757832 0.43101206 0.6896473 0.39143345 0.40736115 0.70446956 0.33141637 0.35353455 0.58431005 0.23475024 0.29289904 0.4475594 0.48329413 0.10614899 0.032862015 0.78325117 0.64423233 0.5298611 0.23733824 0.16216306 -0.04063148 0.9369995 0.881291 0.76193404 0.24965723 0.258159 0.93552387 0.856791 0.24833335 0.33924478 0.8109008 0.71870124 0.6015556 0.32863718 0.6166596 0.56441253 0.39766514 0.33212075 0.4907319 0.36390734 0.24445325 0.36649185 0.41516834 0.48803762 0.1472826 0.118487604 0.549546 0.5831425 0.5707168 0.4365398 0.22143583 0.17679915 0.2099311 0.29336554 0.12132184 0.04816053 0.072424 0.102438934 0.22234185 0.30426365 0.30599797 0.09051574 -0.20479542 0.116793565 0.18326798 0.22862403 0.20731865 0.36177644 0.3420356 0.5831667 0.27091724 0.5628785 0.6940434 0.6797443 0.3377853 0.38779727 0.6973589 0.72125065 0.46435282 0.45581418 0.5502558 0.6632425 0.71039355 0.6153489 0.68061316 0.7339016 0.77138996 0.761424 0.59979224 0.5229595 0.5519067 0.5398952 0.35999906 0.3809663 0.43756324 0.43048108 0.42626035 0.2302645 0.30912888 0.26654202 0.07946829 0.2040423 -0.47390157 0.23670799 0.41803208 0.27194935 0.26363546 0.15075965 0.011457413 -0.094557926 -0.14558546 -0.51963234 -0.28086033 -0.20610783 -0.091895565 -0.014315501 0.0407443 0.084060095 0.3907605 0.33214897 0.25677675 0.26029474 -0.31342265 -0.096999906 -0.095984116 0.4103893 0.35870692 -0.0689798 0.42725945 -0.000373628 0.059848387 0.43695918 0.06675464 0.18318906 0.39895087 0.4360689 0.5425829 0.43393427 0.36650276 0.5655529 0.6345819 0.42265335 0.42473093 0.6125653 0.40824616 0.32470948 0.30113554 0.5532793 0.25526464 0.22088425 0.16703576 0.43120527 0.17057462 0.1726118 0.10965865 -0.39179856 0.009522781 -0.16170725 0.09453685 0.6604104 0.2798484 0.24625704 -0.014632687 -0.037907064 0.3298022 0.74344325 0.61282384 0.43916917 0.3066535 0.27043954 0.007858373 0.3580174 0.39468563 0.5544496 0.4358672 0.33493355 0.29699567 0.20769262 0.011839092 0.4111204 0.4868177 0.4049449 0.33401924 0.31804803 0.11941004 -0.23014045 0.41222784 0.46938384 0.3471912 0.37241614 0.07337256 -0.1180463 -0.16807981 0.090287544 0.49070445 0.5338051 0.49762523 0.3991271 0.09526503 0.14116867 -0.3872012 -0.29138798 0.5290429 0.5608864 0.51101947 0.20063674 0.32226282 0.22368732 0.2460599 -0.10225924 -0.14911775 -0.18104553 -0.37509847 0.24206051 -0.34512568 0.123487994 0.12622738 0.12781808 0.18787956 0.21626738 -0.12899408 0.43289903 0.23135029 0.2689239 0.24119976 0.57996655 0.6035329 0.29582235 0.30004427 0.307056 0.3559379 0.4023619 0.6791183 0.65245724 0.35290018 0.3916704 0.44332513 0.47764748 0.63710976 0.67005885 0.7502072 0.72576064 0.580343 0.6490048 0.66447824 0.66004896 0.6335156 0.61579436 0.649444 0.6363526 0.5727895 0.48797327 0.5456568 0.5892767 0.3826071 0.34468392 0.40114343 0.3865471 0.2949326 0.23757353 0.5015032 0.5259718 -0.16876507 0.42063218 0.50092846 0.5209513 0.08045949 0.01571833 -0.3303907 -0.48323804 0.11328532 0.4154517 0.29563597 0.23853001 0.25764838 0.15551631 -0.4687882 0.1361409 0.38245156 0.32870418 0.033682026 -0.08556922 0.42680737 0.4118907 -0.023743229 0.11896397 0.44140244 0.03848812 0.14475596 0.44565696 0.24157709 0.3298061 0.37900466 0.2787188 0.08634681 -0.10839028 0.3451003 0.49451786 -0.015489653 0.50247705 0.38932997 0.38621604 0.02179955 0.23581159 0.02851281 -0.24415915 0.31056464 0.31563354 0.0037903339 0.051135797 0.3691979 0.087241784 0.43556976 0.029517964 0.523723 0.5431011 0.42859858 -0.62136286 0.07470396 0.58986634 0.5956313 0.100373514 -0.07563357 0.17228374 0.23001498 0.21711123 0.16645198 0.39635694 0.5682641 0.61254716 0.45473543 0.28307194 0.35575497 0.30640545 -0.084043115 -0.14088991 -0.21044344 -0.2691532 -0.4046296 0.37402406 0.365188 0.29240233 0.4118275 0.36546472 -0.021493057 0.002665338 -0.27726698 0.056672968 0.08235418 0.024857145 -0.07385829 0.12331824 0.1409865 0.09512891 0.060439933 -0.060799927 0.4608447 0.48067224 0.20371854 0.1891449 0.56067944 0.6896553 0.6742562 0.48623997 0.59337634 0.7143258 0.7721734 0.7566844 0.7106164 0.62309647 0.6544249 0.66455925 0.61174667 0.53068775 0.60893714 0.64930713 0.54667825 0.48493 0.36292484 0.51672125 0.54326665 0.3731782 0.3499567 0.39763027 0.28467393 0.51265234 0.52660763 0.2387847 0.20182547 0.49361414 0.53677094 0.5374797 0.2967488 0.3176111 0.27181622 0.27010956 0.10057161 0.044584706 -0.26533055 0.3036263 0.5110083 0.46760863 0.24159995 0.17468543 -0.3805793 -0.12615775 0.3794793 0.19974568 0.14709145 0.35578158 0.378789 0.17847872 0.2501771 0.39577743 0.40691423 0.26044935 0.39942878 0.40421408 0.39014614 0.28243914 0.34509706 0.16294953 0.011355296 0.18684973 0.046863586 0.03845516 0.14832047 0.007235229 0.04235012 0.021089517 0.035593025 -0.24593975 -0.19574101 -0.11197499 0.17192012 0.26398793 0.016933173 -0.0018615779 0.35536188 0.42646974 0.43572563 0.4269097 0.42995 0.5661335 0.4421585 0.5366305 -0.27061617 0.6091588 0.6541852 0.5911739 0.60519934 0.6611561 0.56694156 0.4348304 0.41154957 0.43761766 0.20590483 -0.06149809 -0.15259379 -0.19240876 -0.23325838 0.014253069 0.5205873 0.5565002 0.56346214 0.5053053 0.47562802 0.50534713 0.40920845 0.2529391 -0.13672562 -0.049891002 -0.032301307 -0.17429733 0.5858357 0.56248707 0.51432335 0.45162562 -0.020846404 -0.04220609 0.35694999 -0.01932646 -0.06365667 0.4759513 0.120786354 0.53467077 0.2965427 0.63410175 0.49203804 0.53657675 0.6210109 0.7062323 0.72451913 0.61791265 0.6078441 0.624231 0.6467 0.62612617 0.55834067 0.40622884 0.3184237 0.28906307 0.27874044 0.27108034 0.49661514 0.50932837 0.4176318 0.3856875 0.30839995 0.08450268 0.50402206 0.5004902 0.34018037 0.36947724 0.33475077 0.26031435 0.48636967 0.41193092 0.17336974 0.33173516 0.16050248 0.32229143 0.2926732 -0.023989841 0.3455629 0.1619066 0.23580718 0.2657907 0.36753187 0.3648132 0.3056082 0.3518473 0.3640033 0.4074615 0.3496981 0.32963642 0.28993773 0.06692727 0.2476643 0.041697644 0.07101283 0.044732675 0.017039843 -0.20283642 0.03757499 -0.019283645 0.02812764 0.045860667 -0.21674655 -0.001834996 -0.004087627 0.08716512 -0.2037963 0.207086 0.06276005 -0.036924995 0.3582823 0.40546054 