# vtk DataFile Version 2.0
Really cool data
ASCII
DATASET POLYDATA
POINTS 7806 float
7.3090754 64.07072 -2.4014893
7.3185883 64.95139 -3.8251553
7.2324395 64.777885 -3.283992
7.1799207 64.6853 -2.4878747
7.279762 64.517075 -1.6532845
7.2505403 65.76745 -4.016098
7.0506034 65.580475 -3.5237393
6.958931 65.8062 -2.5257137
7.1186285 65.66217 -1.6533605
7.291787 65.7094 -1.1578054
7.115511 66.420906 -3.9989245
6.902447 66.444435 -3.543857
6.8170543 66.724205 -2.738561
7.0293465 66.5757 -1.5780421
7.162673 66.475525 -1.0700994
7.1720023 67.410645 -3.8662937
6.9232297 67.13908 -3.456495
6.769119 67.43921 -2.1167276
6.9175563 67.5093 -1.58015
7.098334 67.2899 -0.86688036
7.3233275 68.10619 -0.24838275
7.2963657 68.89835 -4.526322
6.924032 68.45264 -3.1974542
6.7776046 68.538315 -2.6035628
6.8608093 68.550186 -1.492388
6.8632765 68.95418 -0.53726643
7.055045 68.86617 -0.03223847
7.4109683 69.54999 -5.1259413
7.3113008 69.67541 -4.449102
7.082674 69.28446 -3.5522327
6.9765425 69.56901 -2.4584215
6.903839 69.41553 -1.6605511
6.8555427 69.55896 -0.4986682
7.122298 69.49923 0.21163514
7.392823 70.03743 -4.4978604
7.2585273 69.88255 -3.3989916
7.173062 69.97757 -2.4286342
7.0204463 70.13777 -1.1409198
7.0086517 70.172424 -0.52059907
7.1657023 70.11734 0.13311093
7.2635446 70.7697 -0.6314561
8.236835 63.06079 -3.9593177
8.220212 62.97955 -3.695123
8.057537 63.114227 -2.4735193
8.136839 63.578175 -4.2618165
7.64087 63.67427 -3.2301238
7.555072 63.718983 -2.3099432
7.6593246 63.833866 -1.5931314
7.9976783 63.893875 -1.0412624
8.041359 64.69866 -4.663712
7.7798586 64.65704 -4.193906
7.479471 64.20517 -1.4725486
7.81501 64.50516 -0.84712005
8.112195 65.32463 17.802757
8.176739 65.27936 18.318354
8.285468 65.29879 18.88461
7.912067 65.736855 -4.6867456
7.470637 65.94334 -4.3863125
7.680178 65.568634 -0.75212127
8.147752 65.35958 -0.44741943
8.132852 65.76224 17.069965
7.918917 65.698494 17.635513
7.889688 65.70452 18.33923
8.181158 65.776924 19.18029
7.468564 66.24867 -4.4156613
7.518083 66.474045 -0.60241354
7.825529 66.522484 -0.31268868
8.065706 66.33504 16.99354
7.7734714 66.42884 17.577942
7.784665 66.440155 18.38041
8.075801 66.36148 19.093939
7.661276 67.24454 -4.4935327
7.774804 67.40862 -0.20934036
8.108516 66.895134 17.13352
7.940577 66.909004 17.635792
8.039189 67.00729 18.385708
8.207655 66.83712 19.084097
8.116919 68.557465 -5.8451333
7.756056 68.97013 -5.502802
8.013774 68.85247 0.75881624
7.9518175 69.61142 -5.8866396
7.560673 69.682434 -5.329899
7.837347 69.466896 0.9776432
8.135172 70.1467 -5.864955
7.764237 70.265434 -5.3133993
7.6156197 70.30834 -4.714983
7.6416163 70.36393 -3.449277
7.4426956 70.32048 -2.6649215
7.4251904 70.67232 -1.2173257
7.5297527 70.68357 0.48458412
8.01321 70.52313 1.1618233
7.9833894 70.73964 -5.0259247
7.9455776 70.739746 -4.41514
8.063547 70.74272 -3.3746672
7.9555755 70.9399 -2.1194167
7.7183356 71.0879 -1.2072465
7.7001553 71.23081 -0.2573726
7.902438 71.255905 0.36539608
8.165501 71.429756 0.99739337
8.391498 72.23059 7.881802
8.223578 71.94234 -0.4438004
8.14877 71.928734 0.35093024
8.224779 71.84984 0.9020842
8.275467 72.69071 7.5382395
8.265658 72.72502 8.1380415
8.364703 73.29036 7.112215
8.227313 73.52694 7.5720844
8.172196 73.58246 8.357238
8.310328 73.63679 9.022129
8.232062 74.62085 7.7594576
8.118227 74.509735 8.456129
8.355459 74.49444 9.315567
8.318135 75.27511 7.866147
8.242871 75.22784 8.43006
8.307657 75.07151 9.010285
8.922181 62.428505 -3.3849194
8.940421 62.440125 -2.926335
8.73724 62.82811 -4.166776
8.664998 62.56446 -3.4477978
8.671611 62.609234 -2.7736144
8.588435 63.094986 -1.830215
8.753952 63.76229 -4.909938
8.493117 63.303024 -4.4470215
8.557564 63.716106 -0.93110037
8.689457 64.457054 -4.9692965
8.748741 64.5393 -0.53502655
8.668705 64.57058 -0.436786
9.336067 65.21777 16.016342
8.788912 65.07853 17.043825
8.592931 65.04372 17.585583
8.680234 64.94599 18.494993
8.813252 65.06943 19.30227
9.053689 65.30512 20.104218
9.043372 65.89155 -5.2015676
8.486354 65.77649 -0.32088196
9.064099 65.87144 15.8637495
8.598279 65.74487 16.502003
8.517417 65.490166 19.588842
8.867199 65.596756 20.070122
8.890651 66.95267 -0.08807948
9.327659 66.07994 15.506617
8.54935 66.29537 16.483128
8.818747 66.30688 20.122204
9.044819 67.71225 -6.5542345
8.404147 67.412735 17.594938
8.466846 67.46041 18.45589
8.742403 67.15782 19.398333
8.952572 66.8608 19.95702
9.092055 68.58398 -7.255468
8.725801 68.20755 -6.5583816
9.190983 69.13871 1.9629743
9.030265 67.882065 17.82457
8.900306 67.7177 18.673742
8.886932 67.60339 18.89804
9.049691 69.1892 -7.052226
8.858263 69.85904 2.2622468
9.339338 69.81682 3.3261793
9.31066 69.76423 12.895598
9.211156 69.851456 13.516816
9.200807 69.98725 14.15068
9.115903 70.03258 -6.789399
8.637796 70.47122 -6.139635
8.882349 70.482124 2.4714394
9.145496 70.569664 3.4374702
9.149986 70.43315 12.931781
8.987359 70.721535 13.519758
9.02297 70.83721 14.225954
8.767173 71.09898 -5.335125
8.802834 71.25109 -4.607054
8.569262 71.13378 -3.3735363
8.519092 71.25424 -2.2546484
9.180394 71.49797 3.498665
9.201749 71.36103 4.663596
9.440064 71.658134 5.645435
8.938138 71.84482 6.670145
8.782962 71.82533 7.5586205
8.868959 71.82517 8.244625
9.13401 71.98486 8.898177
9.303637 71.6173 12.864426
8.899482 71.47073 13.607181
8.970144 71.49497 14.281337
9.231586 71.579 14.806966
8.924578 71.89422 -1.4481047
8.751636 72.41489 -0.3866534
8.537803 72.39536 0.26405957
8.88818 72.29144 1.4622524
9.055051 72.257965 2.372861
9.290923 72.547554 4.6730204
9.160657 72.89016 5.730125
8.567001 72.59942 6.7922354
8.456572 72.249405 7.5047336
8.513862 72.54 8.613322
8.771386 72.78466 9.271415
9.285551 72.82284 9.779197
9.184072 71.981995 13.21608
9.1418 72.17208 13.681327
9.166815 72.11483 14.307408
9.271241 71.889305 14.683812
8.935162 72.68324 -0.1223945
9.009381 72.74375 0.39154842
9.424524 73.3388 4.400181
9.2060995 73.52127 5.6868277
8.498993 73.62798 6.8458524
8.481173 73.75416 9.583267
8.808371 73.65265 9.851689
9.373985 74.34912 5.9762316
8.655064 74.43407 6.8615017
8.5151205 74.69018 9.596552
8.798803 74.5821 10.023803
8.9219675 75.323166 7.085688
8.54405 75.55515 7.7472773
8.435311 75.64213 8.556741
8.560716 75.145195 9.458368
9.021815 75.251816 9.953949
9.104179 75.7234 7.2477727
8.839573 75.967606 7.917181
8.752984 75.962654 8.519608
8.758306 75.881905 8.943057
9.455618 62.430267 -3.8769133
9.392596 62.36984 -3.484403
9.3938675 62.36513 -2.792376
9.349282 63.17386 -4.770491
9.351924 62.646347 -4.2162685
9.433872 62.534252 -2.439384
9.486612 63.595936 -5.0191216
9.066151 63.409607 -1.3850269
10.108821 64.3417 16.40634
9.932704 64.46841 17.95866
9.690573 64.70683 -5.240832
9.558882 64.54322 -0.5127176
10.248091 64.94584 14.942388
9.938143 64.80387 15.693059
9.681356 64.60647 16.534828
9.907174 64.54955 17.41178
9.4964075 64.64346 18.552341
9.462721 64.866486 19.4719
9.584257 65.13447 20.087091
9.742245 65.092926 -0.5325651
9.091247 65.99642 -0.15292141
9.975067 65.697334 14.6955805
9.551026 65.41304 15.498173
9.4734535 65.55291 20.404455
9.566029 65.837135 20.541855
9.870387 66.80862 -6.557741
9.408347 66.34968 -0.29744124
10.3477545 66.01961 14.123506
9.726566 66.25334 14.943206
9.408104 66.51464 20.421495
9.70947 66.2623 20.58479
9.828773 67.9069 -7.7724032
9.4628105 67.99083 -7.530324
9.626497 67.73684 0.4082372
9.326705 67.4709 19.652266
9.621342 67.1752 20.035583
9.711688 68.46473 -7.7979307
9.315962 68.482834 1.4720387
9.864072 68.8456 2.6759815
10.06268 69.01962 3.2206595
9.963916 68.83422 12.732067
9.629815 69.06042 13.336518
9.597204 69.21717 13.995441
10.145188 67.7734 15.3548765
9.474307 68.04221 17.514343
9.710002 68.11258 18.541025
9.509517 67.79993 19.108145
9.806987 69.02113 -7.7951345
9.631549 69.514626 -7.4661326
9.5274935 69.79639 3.5143785
9.854058 69.82751 4.584356
10.22603 70.348785 6.0040073
9.807632 69.64048 12.199717
9.540491 69.65679 12.52753
9.471914 69.404465 14.022651
9.66254 69.992546 14.706353
10.372105 68.88328 16.414015
9.679627 70.21997 -7.107991
9.6809635 70.60077 5.3143067
9.619871 70.97658 6.3783913
9.578165 71.25662 7.983616
9.760738 70.24152 12.078307
10.033343 70.605484 15.239049
9.644614 70.76005 -6.7434883
9.43833 71.02511 -6.326959
9.5552635 71.454956 -5.52011
9.342504 71.513794 8.507033
9.77415 71.4809 8.9441805
9.960059 72.2121 9.856202
9.599382 71.684074 15.05662
9.977473 71.664116 -5.9255943
10.102563 72.07235 -4.865665
9.35273 72.24398 -1.1911435
9.834289 71.81616 12.436643
9.635257 72.517006 13.424567
9.504028 72.475555 14.28791
9.563616 72.32382 14.761978
9.974159 72.80254 -0.8156205
9.702208 72.85003 -0.26603407
9.465387 72.89991 0.32501972
9.685859 72.94101 1.6375133
9.875372 73.34599 2.8710732
9.917978 73.59432 3.266462
9.589171 73.56778 4.909407
10.040909 73.90643 3.5407429
9.831602 74.070595 4.6227474
9.596646 74.37775 5.7547116
9.808853 74.4589 10.882512
10.1209 74.988754 5.6571054
9.498766 75.33779 6.7760243
9.504458 75.20908 10.38096
9.8047905 75.72336 6.9613905
9.46738 76.12919 7.8137326
9.333956 76.24293 8.400355
9.45362 76.09267 9.197318
9.54809 75.65157 9.817727
10.4399805 76.564476 16.65272
10.446234 76.52839 17.061518
9.874722 62.456406 -3.519532
9.895009 62.441875 -2.7888203
11.206038 62.25821 -0.6553731
9.90721 63.042492 -4.663009
10.274038 62.950855 -4.20628
10.713326 62.8762 -3.649468
10.305428 62.676395 -2.465738
10.6324415 62.873817 -1.6538097
11.040538 62.614548 -0.4908423
11.058235 62.842068 0.07574502
10.155285 63.774784 -4.964833
10.259281 63.779503 -1.1114264
10.657214 64.26037 15.790667
10.528451 64.169304 16.560808
10.644323 64.2347 17.252523
10.131296 64.4146 17.97035
10.628529 64.20632 -4.702355
10.304092 64.52393 -0.533251
11.183719 64.35594 0.07402387
11.37958 64.98962 11.959463
11.286267 64.925896 12.605406
11.000306 64.89112 13.512064
10.432926 64.48104 15.603581
10.410571 64.516174 18.373117
10.208902 64.78428 19.267012
10.1937685 65.2123 20.117199
10.205712 66.11572 -5.818207
10.931371 65.7504 -5.664002
11.332149 65.45328 11.714898
10.978593 65.61539 12.71764
10.231415 65.61218 20.324917
[...]
POINT_DATA 7806
SCALARS features_00 float 1
LOOKUP_TABLE default
0.6099659 0.45908388 0.5050403 0.5516734 0.5768862 0.3936203 0.4176259 0.4667238 0.48537788 0.47371623 0.364492 0.38099945 0.41695264 0.41176963 0.4083837 0.32261732 0.3652981 0.39481136 0.376686 0.37003636 0.37145823 0.33599633 0.3247416 0.3492316 0.38639513 0.43386942 0.4226484 0.40777194 0.3706292 0.31524092 0.3194052 0.37937683 0.4504862 0.45829815 0.3795122 0.31378412 0.30475432 0.39327642 0.43136597 0.45707995 0.3966287 0.69684315 0.6923723 0.668805 0.6617143 0.6472609 0.64996004 0.63494515 0.59545386 0.48388815 0.49261376 0.6009472 0.5393959 0.7671091 0.8177849 0.85594535 0.35988048 0.36748356 0.46408156 0.41979605 0.6954619 0.80285215 0.89165664 0.93465054 0.3481058 0.4010203 0.3812295 0.74563456 0.86817336 0.9287259 0.94599044 0.29125518 0.35285014 0.7974304 0.85702485 0.82298416 0.8502562 0.3728938 0.38897908 0.33281368 0.45540178 0.42693937 0.39731392 0.46138903 0.43356413 0.3928216 0.31038123 0.287061 0.35556877 0.43920833 0.40280312 0.41147292 0.36607686 0.2874599 0.27346513 0.33937675 0.39754716 0.41403645 0.3945154 0.4807458 0.38835645 0.39841604 0.3889638 0.5029575 0.52682304 0.49657947 0.5585546 0.5935709 0.5963223 0.6385267 0.65951306 0.65783143 0.6581538 0.6888927 0.68480647 0.6308813 0.59101427 0.6951504 0.6587074 0.61144626 0.5936893 0.6426735 0.69252264 0.54421175 0.5375072 0.38838917 0.38876158 0.42884618 0.5689255 0.6506795 0.73070705 0.81274474 0.88350844 0.28673923 0.35937262 0.403475 0.5505023 0.9092259 0.9140687 0.22190484 0.31980422 0.56505275 0.91972435 0.42434937 0.7210612 0.6816648 0.7529991 0.8446435 0.47035027 0.4407128 0.25964054 0.50825727 0.5922848 0.62283784 0.46613887 0.26014552 0.26569796 0.45196676 0.52071357 0.56542885 0.44424278 0.44722873 0.25726095 0.25569427 0.5644711 0.63260233 0.62716174 0.40736896 0.34873915 0.24287283 0.2373917 0.27724305 0.27887425 0.31242934 0.39572427 0.41930875 0.43879187 0.4457774 0.67160785 0.67990196 0.6358061 0.56348896 0.3388612 0.39309308 0.39105368 0.37387043 0.3434957 0.29150552 0.34175643 0.44986412 0.46596003 0.5089355 0.50710773 0.4717371 0.68215376 0.67043555 0.6320418 0.5852461 0.38639712 0.3782138 0.29584205 0.3148169 0.4706206 0.6005763 0.58541536 0.3223088 0.4835719 0.66372097 0.64411104 0.507303 0.63872796 0.6955851 0.6770798 0.6470915 0.5152339 0.64383805 0.692116 0.6918657 0.6175779 0.5906715 0.5292155 0.66562533 0.6570719 0.48702747 0.6093401 0.51485133 0.42241293 0.47762358 0.35729706 0.27244148 0.33443743 0.39617833 0.4561468 0.45973802 0.6105598 0.75082517 0.83371294 0.22587451 0.27026328 0.2536191 0.36792284 0.8778517 0.8722383 0.30670196 0.20262371 0.13585849 0.23048808 0.86118805 0.8539916 0.44659275 0.46022993 0.060558617 0.6877362 0.77282035 0.4548694 0.20752859 0.24070722 0.24629557 0.26392108 0.37117732 0.42041785 0.16275975 0.3450126 0.4025309 0.53427684 0.4468937 0.45173237 0.26903883 0.25341415 0.1643829 0.30754346 0.38050267 0.47052774 0.50712734 -0.058507413 0.4203791 0.22864407 0.24349633 0.3281323 0.39438376 0.37252033 0.39273655 0.3885919 0.3534115 0.39375672 0.34055015 0.3115376 0.48632663 0.3410864 0.32069755 0.37171498 0.6076385 0.62742025 0.60000217 0.53725046 0.3791949 0.37377092 0.36759618 0.33068267 0.2719203 0.28532773 0.29367298 0.30331698 0.29789114 0.29376704 0.5739906 0.21885037 0.37355906 0.6017761 0.32992953 0.5491878 0.6528635 0.6564493 0.628106 0.7013334 0.7116164 0.54679143 0.47934505 0.36922833 0.6200059 0.56373537 0.45705956 0.39944908 0.27976543 0.35725778 0.39396074 0.47502214 0.3038376 0.37629798 0.38786775 0.36447078 0.4475069 0.24468783 0.15819871 0.14262582 0.34336564 0.34280306 0.3106705 0.38624933 0.43920574 0.62677026 0.80212617 0.070675075 -0.03768351 0.30932152 0.25422642 0.82702744 0.102869034 0.23514417 0.19763595 0.088913016 0.07360522 0.8020586 0.4037309 0.07340641 0.11743375 0.013332162 0.008375347 0.740572 0.42495656 0.18392166 0.19637191 0.10629398 0.12781253 0.06501449 0.38525546 0.21202248 0.15898348 -0.06566147 0.11413929 -0.10002772 0.058233403 -0.06985593 0.3722356 0.09499252 0.1669923 -0.0058117285 0.13025664 0.24974886 0.3330919 0.32575095 -0.089555025 0.36023515 0.092969775 0.20615783 0.26267347 0.28007826 0.32951808 0.3327102 0.32535458 0.33118612 0.24995184 0.120764434 0.21752961 0.27485386 0.34019923 0.35993728 0.35332447 0.33825877 0.27505386 0.27922073 0.21720682 0.26134577 0.06750229 0.219698 0.28247654 0.30518162 0.43163836 0.37118196 0.32234666 0.26157796 0.24370341 0.4959867 0.55528265 0.605394 0.577084 0.5949182 0.058382593 0.12326565 0.5516126 0.62271905 0.6490495 0.7098433 0.69624376 0.6883355 0.6000116 0.66446954 0.7259873 0.76283455 0.7543149 0.73173726 0.64492315 0.70228195 0.74555707 0.7554623 0.21014857 0.2791867 0.40298823 0.45147935 0.5304786 0.36425838 0.20439953 0.46086782 0.54656786 0.6197994 0.4759031 0.55213237 0.38116348 0.3757156 0.35530996 0.23564544 0.23045051 0.2543295 0.2719878 -0.14781219 0.36988968 0.51553994 0.3605817 0.3669976 0.36867198 0.3666494 0.5561455 0.008825216 -0.07816225 0.28474212 0.29393482 0.17196374 0.19690461 0.71966916 0.43475607 0.06698524 -0.03400082 0.30558395 -0.0054678805 0.09521565 0.09485932 0.08339705 -0.078618094 -0.077304825 0.29175106 0.12468742 0.06898544 -0.18961133 -0.117957145 -0.061123885 0.14075719 0.30185068 0.2450417 0.28101838 0.26958674 0.2905196 0.32015896 0.24167103 0.20933409 0.33785117 0.36060596 0.35572103 0.20572919 0.1754371 0.16551 -0.21692869 0.03945893 -0.011041425 0.23804669 0.21109754 0.23487607 0.24349819 0.14813296 0.23144174 0.3730949 0.38154083 0.15272528 0.20903875 0.11236959 0.059509367 -0.029416308 0.31929758 0.55193126 0.104464926 0.17884746 0.18143106 0.44630492 0.6759193 0.14535736 0.21586278 0.21763894 0.20911635 0.24372326 0.14145562 0.4897843 0.7473022 0.7168232 0.20361254 0.16186449 0.18482155 0.22660126 0.24728471 0.4255464 0.5534332 0.66668296 0.7138416 0.7306093 0.16853517 0.17471242 0.16913882 0.19641072 0.2087668 0.44278178 0.60910845 0.4126869 0.4708827 0.56606174 0.61000586 0.35093927 0.3948807 0.4662121 0.5673192 0.6334294 0.6846051 0.6521497 0.68444085 -0.085927635 0.07413046 0.5988512 0.6596955 0.35244402 0.3780769 0.36287183 0.323216 0.1115431 0.10205694 0.17220344 0.10663436 -0.15315306 0.5040831 0.18498051 0.18401733 0.45945108 0.4304917 0.1898816 0.55223775 0.45486403 0.32628512 0.02812204 0.051834404 0.12422474 0.3124896 0.6113621 0.52652717 -0.2542242 -0.20137128 -0.025220916 -0.06628932 -0.034852177 0.33290368 0.35992515 0.35046995 0.588498 0.543466 -0.063838184 -0.028534822 -0.08213994 0.12569983 0.29939246 0.3530226 0.3538874 0.4373243 0.21525002 -0.09375564 0.11966839 0.028427716 0.30167234 0.20145908 0.0909252 -0.13537697 0.16149515 -0.15176943 0.06643128 -0.10884655 0.19009638 0.14122751 0.28770232 0.32730168 0.29809523 0.2242402 0.04250752 0.026865833 0.107266545 -0.0990984 0.11045634 0.12182194 0.024440814 -0.17034528 -0.36565346 -0.39363566 0.19118674 0.27657288 -0.004019864 -0.13311388 -0.35167804 0.48903403 0.06825623 0.14496133 0.620859 0.14874543 0.17489214 0.6586932 0.24535137 0.25419503 0.21215057 0.12223017 0.58446074 0.5871958 0.6108257 0.681857 0.23657015 0.18954042 0.16250587 0.18104573 0.12089254 0.4584893 0.33787906 0.32213327 0.25530538 0.08986519 0.59528387 0.4907447 0.4788484 0.45998758 0.44674277 0.6996413 0.6688539 0.6391865 0.6098157 0.6183673 0.7400352 0.7366098 0.71745133 0.7116808 0.67883635 0.7533312 0.75637513 0.7491412 0.489008 0.6143037 0.65932167 0.14017211 0.20058793 0.38062492 0.6648346 0.71102256 0.5394693 0.5789252 0.11777072 0.7191818 0.34227154 0.34862667 0.33355218 0.46391958 0.55407786 0.5653541 -0.09378174 -0.010704115 0.6905259 0.2743617 0.32334018 0.3665334 0.20414533 0.18165812 0.024438825 0.055193223 0.42424765 0.49057156 0.49198684 0.46236768 0.15788734 0.61144286 0.120414734 0.14723726 0.28134492 -0.023198068 0.19633937 0.31998646 0.5559896 0.40551597 -0.009767428 0.38609895 0.10250093 0.0776733 0.040290162 0.058264863 0.14158964 0.10531644 0.5995015 0.57551193 0.10591485 0.05925036 0.26439196 0.2407633 0.64861465 -0.22612186 -0.2626779 0.03524408 0.29369622 0.6412026 -0.21275352 -0.277854 -0.03369593 0.33484924 0.24528314 0.5297142 0.06637906 0.21159157 0.25834993 0.26258463 0.32926318 -0.011139926 0.035046846 0.17718476 0.12562257 -0.050521687 -0.04561807 0.22136404 -0.20478377 -0.18575802 0.051695585 0.24963048 0.21887864 0.18979222 0.058363114 -0.12223951 -0.0527374 -0.13033953 -0.034072153 -0.50648427 0.26185358 0.04972422 0.37075037 0.14548752 0.4991426 0.45035508 0.17232785 0.18614051 0.47086573 0.42191532 0.22424684 0.25188658 0.19279754 0.43486223 0.18364504 0.18237291 0.03668441 0.231518 0.0771884 0.520088 0.5539024 0.18931627 0.63620424 0.6985502 0.5120239 0.74711466 0.7549871 0.65660214 0.5704929 0.7550397 0.7576624 0.77464306 0.7447547 0.6953745 0.71249163 0.24417348 0.42060143 0.5919302 0.31603307 0.26870263 0.4822167 0.563534 0.5888041 0.5706592 -0.0031607077 0.1392294 0.791488 0.32195598 0.29597813 0.12447448 0.15278539 0.08338857 0.22558355 0.45592052 0.57565874 0.5436242 0.7458526 0.10328615 0.2509169 0.20497966 0.069886774 -0.07810615 -0.07330009 -0.09144759 0.0661204 0.18149686 0.50769556 0.43663487 0.5649648 0.490901 0.33856902 0.06762852 0.6252339 0.081331186 0.07433852 0.053529598 0.24203828 0.2308321 0.15389769 0.61317 0.59222364 0.506148 0.098193005 0.09398134 0.08313498 0.06771918 0.09967493 0.29109147 0.6328919 -0.32880235 0.0961376 0.11192481 0.071644925 0.17520405 0.34683046 0.564852 0.60414416 0.6587113 -0.23391794 -0.22410929 0.078368604 0.15107575 0.2784819 0.436081 0.55321944 0.623833 0.6325382 -0.27095506 0.32224095 0.44045448 0.5946597 0.6120498 0.5777919 0.21403943 0.352572 0.44735852 0.57752407 0.49594045 0.042598553 -0.1322089 0.09305258 -0.037042305 -0.29507476 -0.37139225 0.01970815 0.03956611 0.2631802 0.1643667 -0.03292168 -0.25413683 0.044967774 0.04916709 0.23223598 0.1518768 -0.15876587 0.03176322 0.27065217 0.16125959 0.27461404 0.21397895 0.23788035 0.28340274 0.18984428 0.1920196 -0.029302612 0.12310713 0.21078889 0.15617801 -0.01714737 -0.00077492 0.3279456 0.08624445 0.31819353 0.48294652 0.1893773 0.26703182 0.3138656 0.6081977 0.43088776 0.3429406 0.7125677 0.57019305 0.54500735 0.72881144 0.73826724 0.7555729 0.6939859 0.62561655 0.49648574 0.48123157 0.46951872 0.5072831 0.48609665 0.43509203 0.3446315 0.3244862 0.5031048 0.4876307 0.4475283 0.33705276 0.36810464 0.3116171 0.23365289 0.20458594 0.5056522 0.5685245 0.23349473 0.26032063 0.18911028 0.30570745 0.38059402 0.65561694 0.73820996 0.42342702 0.490858 0.2667739 0.07332761 0.22251604 0.2499836 0.2145383 0.12433922 0.41889334 0.5539291 0.5830766 0.5501478 0.22875023 0.11111751 -0.18758811 0.23604304 0.6383189 0.23395312 0.23652095 -0.105174206 0.011282697 0.5117232 0.46577877 0.2305313 -0.15379752 0.4295162 0.6599698 -0.014888272 0.11413989 0.19342439 0.42561287 0.34271622 0.5989504 0.51210034 0.41898215 0.48095593 -0.06439356 0.24365465 0.38068584 0.54734325 0.6080103 0.61004245 -0.009269513 0.4475646 0.57505375 0.6452958 0.5946027 -0.35598105 -0.08459312 0.6536176 0.6798676 0.55985266 0.67063904 0.6859151 0.5476234 0.69083995 0.56763554 0.51325446 0.16955161 0.46194795 0.63621825 0.6998871 -0.034379862 0.10804799 0.33878708 0.4892153 0.6335591 0.69541097 0.1623486 -0.07747975 0.012342863 0.36207986 -0.27524087 0.11904982 0.0744165 0.38377142 0.3212278 0.26104358 -0.12046237 -0.29956937 -0.3564068 0.21589682 0.16238126 0.3247657 0.25830138 0.18883666 0.090061605 -0.05791845 -0.070326254 0.03540117 -0.3737356 -0.11055812 0.22118828 0.17517461 0.0405276 0.20540696 0.24190646 0.14662603 0.14154485 0.2052171 0.17649324 0.16851714 0.037924618 0.09999692 0.16519034 0.035239503 -0.02018904 0.12210122 0.15433776 0.29685903 0.3594971 0.40544978 0.42896944 0.47655785 0.5139083 0.5478915 0.30204168 0.37035632 0.47312117 0.5975791 0.6033405 0.3538609 0.3767311 0.67722476 0.6424885 0.652182 0.5462527 0.5051276 0.4925291 0.49804413 0.5020156 0.50639987 0.4957477 0.5074809 0.5164584 0.47956926 0.400078 0.45889533 0.5116505 0.4925134 0.46175706 0.4815619 0.50783306 0.5024682 0.47607592 0.44299686 0.3021974 0.38172242 0.4990701 0.49613458 0.42046437 0.5267779 0.54071766 0.46729875 0.48261312 0.4972236 0.49536937 0.41462976 0.3920225 0.24212393 0.3353719 0.39593077 0.4191471 0.4934794 0.4237305 0.42528486 0.40721625 0.3635578 0.48345202 0.5046285 0.3050992 0.12257814 0.22302847 0.2652141 0.45941192 0.4117093 0.3780466 0.2824664 0.42748588 0.47188774 0.32838377 0.13455594 0.039904173 0.1551364 -0.06824222 0.41040784 0.37845445 0.26908147 0.30855876 0.39916217 0.12125167 -0.19005159 -0.00016098376 0.50284106 0.21717703 -0.4084612 0.32984143 0.68723226 0.019639738 0.1988636 0.07081324 0.13338515 0.13919397 -0.36466563 -0.1511276 0.42682683 0.36189556 -0.31406045 -0.047028452 -0.33556774 -0.32157975 0.5647955 -0.2772472 -0.41434163 -0.13557157 -0.07805152 0.56608784 0.6249019 0.45113945 -0.3722173 -0.3548535 -0.3487287 -0.17181082 0.65686595 0.67663324 0.54532874 0.47236693 -0.3857118 -0.34543213 0.68879104 0.48241055 0.43861532 0.69380254 0.4926306 0.43454516 0.70127034 0.69673264 0.4981916 0.44142225 0.70502555 0.70329547 0.25142476 0.55706453 0.6540557 0.7023603 0.41596153 0.24974042 0.26270145 0.5067179 0.5528735 0.48829728 0.27427053 0.2993937 0.48836732 0.57330346 0.59994614 0.47882557 0.3740979 0.34150696 0.2506426 0.06687999 0.12706615 0.16171879 0.029570088 -0.012753325 -0.14239767 0.08755854 0.20753361 0.3172377 0.22195971 -0.010722246 0.123644754 0.12524103 0.095752686 0.11977285 0.0856341 0.103217155 -0.06916988 -0.25572267 0.048056938 -0.03978642 0.23882632 0.17508486 0.37444928 0.35484776 0.4042668 0.2905491 0.5543938 0.43800935 0.5829227 0.6276976 0.48946327 0.5097065 0.46428975 0.3810924 0.3260697 0.31735194 0.4419914 0.5626075 0.51305914 0.46248478 0.4502626 0.3994015 0.4379131 0.48174965 0.4754675 0.4526717 0.4172911 0.46762156 0.47379893 0.4247898 0.4167866 0.46850413 0.44410986 0.42074037 0.44231933 0.43353486 0.36042684 0.24150944 0.44809887 0.55037 0.58499765 0.59336245 0.5056529 0.43674713 0.458255 0.46483144 0.419784 0.39616498 0.21952553 0.26500964 0.5371367 0.5322292 0.5769589 0.47607994 0.4133417 0.44621268 0.4797387 0.5125427 0.47260904 0.42616853 0.025265932 0.18327488 0.19407243 0.19764954 -0.037942678 0.23919638 0.37598354 0.5065093 0.49231765 0.3101204 0.44358653 0.48898005 0.52441514 0.45348635 0.16397642 0.05199183 0.06442665 0.14576009 0.47921333 0.4059502 0.26059324 0.22740647 0.40371954 -0.2695004 -0.3487292 -0.19899628 -0.19825554 -0.07871179 0.034692097 0.1261572 0.3747037 0.0140830055 -0.25269893 0.1263301 0.19080025 0.2162186 -0.3421523 -0.38945895 -0.42431942 -0.3614666 -0.19104743 -0.43794516 -0.412584 -0.020637468 0.11079538 -0.40788937 -0.38881272 -0.3054372 0.028296903 -0.3013562 0.021418408 -0.074501894 0.40088165 0.4487255 0.033219274 -0.31482083 -0.36860216 -0.2855125 0.53864485 0.39993337 0.6292238 0.6714541 0.40654588 0.2926017 0.6710485 0.37986284 0.35002494 0.6770173 0.3933475 0.33134717 0.22840549 0.64648885 0.67510295 0.23263687 0.6742637 0.6888222 0.3587147 0.6419658 0.67625314 0.45435292 0.42585623 0.45473033 0.41992518 0.53818905 0.558775 0.59629947 0.52214485 0.042479515 0.05007098 0.21947883 0.3838868 0.597502 0.6069473 0.52822137 0.47629628 0.10999217 -0.021217965 0.47381046 0.56577814 0.48987564 0.3713103 0.33526102 0.16673204 0.2360026 0.2135858 0.18144783 0.12015659 -0.0834433 0.01991395 0.20318355 0.1658192 0.115346044 -0.13018933 0.019864025 0.07561713 -0.013996353 -0.019616984 -0.0076114405 -0.15878218 -0.29514414 0.119035624 0.023530707 0.22233602 0.27507934 0.05084106 0.47460595 0.22743168 0.53703094 0.37613466 0.41525495 0.46544477 0.57809347 0.4501847 0.4102822 0.35507143 0.3110956 0.3233583 0.43108153 0.37502414 0.41369528 0.32367742 0.3256054 0.39580858 0.18941954 0.29827994 0.37320244 0.24997103 0.22592112 0.50396377 0.519449 0.56078696 0.49882352 0.30608028 0.33893737 0.2574637 0.22241323 0.19232227 0.22931343 0.5135887 0.5193646 0.469972 0.41054457 0.32083106 0.3442524 0.38685822 0.4294365 0.34696746 0.26230553 0.09042205 0.25762877 0.34107605 0.49517986 0.53912264 0.4968445 0.5269655 0.5404336 0.3893457 0.28815204 0.3126693 0.40517703 0.42268285 0.21762651 -0.04855457 0.082303606 -0.14377004 0.011089532 0.43072832 0.44516495 0.49656516 0.060101807 0.20932794 0.33966696 0.23022035 0.19625664 0.27569336 -0.35597947 0.34890363 0.28393066 0.4284085 -0.17377374 0.32301384 0.20524873 0.22123952 -0.31538206 0.14706801 0.17041321 -0.4262163 0.11123743 0.18996875 -0.049063295 0.048554868 0.22084127 -0.3378817 -0.26964742 0.30365378 -0.07080085 0.47571087 0.12993973 -0.06309568 0.52629864 0.5683131 0.21028769 0.5782972 0.63190365 0.24048445 0.5524199 0.6190187 0.542391 0.60689205 -0.13490838 0.52652013 0.58118737 0.49193928 0.38955602 0.42420137 0.5866856 0.5183959 0.64936197 -0.1502298 0.085325666 0.5842886 0.5924953 0.6577144 0.64227724 0.56890744 0.027561303 -0.032958686 0.12645787 0.24966803 0.44305432 0.57444996 0.6204442 0.53111935 0.3800946 0.31761187 0.21271706 -0.013452832 0.10714272 0.12072641 -0.026197618 -0.05377969 0.18311173 0.16217929 0.08379589 -0.11221862 -0.18154986 -0.004918136 -0.20677269 -0.2928409 -0.028039865 -0.012314558 -0.3601724 -0.01980526 -0.020900331 -0.30045563 0.20796704 -0.19404392 0.37031657 0.22842191 0.46108538 0.4654917 0.379472 0.28414366 0.34171152 0.4395278 0.49926502 0.38609153 0.30393845 0.30963963 0.34277698 0.48151845 0.52699226 0.54514587 0.40672147 0.4518961 0.49962524 0.5223417 0.6256516 0.6491842 0.66911507 0.67941177 0.33954847 0.41667348 0.45073178 0.45603043 0.26147822 0.3089351 0.3890832 0.45354825 0.4771098 0.4569846 0.63592803 0.7037729 0.72369885 0.713831 0.21891204 0.3536028 0.20599538 0.24898724 0.35945493 0.38838708 0.42067903 0.65023226 0.7434716 0.7681339 0.6849718 0.6138696 0.13655931 0.06667185 0.11878073 0.32627773 0.34163895 0.69022477 0.692172 0.6422592 0.17345153 0.17584069 -0.07334277 0.31552553 0.010150041 -0.048948325 0.2782794 0.1472263 0.4525726 0.4219706 0.23647466 0.28093967 0.18464288 0.0027700402 -0.034257963 -0.044068456 0.030669987 0.40233698 0.45393226 0.4804487 0.27887267 0.12701835 0.26474974 0.28057778 0.29643574 0.043908775 -0.033423238 -0.04748875 -0.14035672 -0.057962216 0.24238679 0.24224342 0.43171883 0.4236141 -0.053083315 0.34472457 0.3234576 0.09769923 -0.24968821 0.16641507 0.30049157 0.1438394 0.04437919 0.15410528 0.17658322 -0.0054433346 0.10291734 0.04719817 0.03264223 -0.016472891 0.019945845 0.23707238 -0.02147276 0.29242224 -0.13871264 0.287752 0.4151799 -0.08322197 0.3120773 0.41639012 0.5052593 -0.061184797 0.3072396 0.5056442 0.19545153 0.44890636 0.2323237 0.26969615 0.45582083 0.3978512 0.41277567 0.5898534 0.51950794 0.6834898 -0.050989807 0.1639353 0.30605614 0.7009 0.69088465 0.2057431 -0.070088685 -0.17575854 0.3137733 0.3694419 0.6464296 0.60462415 0.39156783 0.33613825 -0.07914639 -0.02133297 0.03443707 0.37443787 0.37881684 0.051798847 0.1199693 0.10158998 -0.06986016 -0.06945101 -0.15739262 -0.20817634 -0.28321868 -0.42216516 -0.087531745 -0.04913637 -0.36592466 -0.044100985 -0.2059024 0.18306977 -0.13226402 -0.14387868 0.29156554 0.32172608 0.12768334 0.3715483 0.38818145 0.7778959 0.7576098 0.70590436 0.26452047 0.30031902 0.35731193 0.38822088 0.8135655 0.796698 0.73863506 0.83087873 0.81800914 0.76935685 0.57048476 0.5719516 0.37766868 0.4008336 0.50542766 0.55334455 0.57086027 0.56145835 0.5409086 0.56011605 0.5901596 0.32724142 0.39647654 0.5182733 0.44102246 0.48117006 0.5086326 0.5214613 0.55626047 0.53304964 0.56401074 0.5995432 0.6321698 0.6478549 0.64682394 0.20117523 0.25761747 0.35769874 0.28337398 0.48331994 0.5166086 0.4882273 0.68097484 0.61883664 0.111242354 0.098513156 0.22081104 0.21558292 0.43801016 0.38912272 0.5205595 0.6158724 0.59097475 0.5742122 0.21726936 0.10912203 -0.030235142 0.06206499 0.31013376 0.52022153 0.57314587 0.55083907 0.55131626 0.2498433 0.19723108 0.1167638 -0.28501666 -0.096821316 -0.13097666 -0.17152241 0.44322062 0.5923852 0.543973