# vtk DataFile Version 2.0
Really cool data
ASCII
DATASET POLYDATA
POINTS 3152 float
27.391806 49.063927 13.181768
27.440847 48.628056 14.621441
27.46433 48.644005 14.934998
27.345453 49.732067 12.729554
27.309574 49.563435 13.384529
27.44233 49.292427 14.366642
27.360306 50.194904 12.644211
27.3637 50.24582 13.38687
27.443737 49.90934 14.082715
28.372995 46.162086 14.993764
28.252409 46.997765 13.887222
28.125525 46.92184 15.287588
27.712196 47.73252 14.625002
27.852386 47.691246 15.457396
28.262398 47.643467 15.991421
27.777147 49.183323 12.247099
27.727686 48.93244 12.507195
27.632288 48.42851 13.811874
27.507172 48.52081 14.603958
27.647638 48.44468 15.369736
27.997187 48.543278 15.981356
27.910753 49.621902 11.836346
27.513918 49.58433 12.42596
27.550274 49.556587 14.640983
27.693111 49.269783 15.280429
28.044096 49.190933 15.940166
28.279245 50.73894 11.040834
27.818157 50.339138 11.809325
27.526949 50.61477 12.5898695
27.549871 50.784645 13.4287195
27.623146 50.2347 14.137116
28.25375 49.807518 15.536004
28.23435 49.852814 15.783886
28.032387 51.31845 11.787579
27.892479 51.545803 12.450408
27.626877 51.0128 13.2449875
28.010742 50.995937 14.361322
28.203382 51.94157 11.985537
28.131998 52.213596 12.917651
28.238232 52.33913 13.437245
28.413652 52.347107 14.567701
28.316992 52.760468 12.883488
29.12601 45.144657 14.51584
29.180098 45.165337 15.351783
29.085377 46.13559 13.001454
28.677717 45.932255 14.039465
28.65176 45.766087 14.678663
28.776255 45.784874 15.509702
28.785843 45.96722 15.815373
28.42613 46.92075 13.623794
28.643032 46.24176 15.61372
28.70463 46.764137 16.0312
28.824383 47.42481 16.326353
28.34153 49.114624 11.788818
28.504309 48.54893 16.484829
28.916649 48.41206 16.708382
28.92444 49.734413 10.79821
28.577213 49.38732 11.443458
28.606787 49.487797 16.247574
28.96231 49.094875 16.721107
29.062178 50.701538 9.988327
28.575998 50.489056 10.613333
29.142694 51.440685 9.828814
28.577862 51.334118 10.545652
29.217989 52.35273 9.848795
28.86671 52.541782 10.608703
28.5812 52.504566 11.536351
28.521187 52.53123 14.426651
28.658901 52.612194 15.393996
29.096815 52.53002 16.05862
29.337856 53.16718 10.078143
29.18383 53.028225 10.361492
29.213087 53.366833 11.716505
28.986856 53.288166 12.461468
28.704382 53.18448 14.532028
28.975636 53.520912 15.453407
29.209293 53.33496 16.03815
29.335258 54.316353 13.556621
29.144335 54.20113 15.247525
29.235651 54.83406 16.284119
29.08559 55.748917 15.657605
29.208029 55.6989 16.780436
29.31535 55.82917 16.937178
29.3852 56.534267 14.928659
29.155964 56.339703 15.616382
29.23772 56.37284 16.429441
29.2727 56.150864 16.784851
29.366299 56.776783 15.415221
29.3241 56.854214 16.217947
30.433224 43.092876 15.661079
30.307865 42.956112 16.515837
30.150673 42.912003 19.870129
30.129637 42.976246 20.35236
30.26616 43.063103 20.793165
30.313581 44.28854 12.712934
30.168406 44.19509 13.443146
30.31243 43.74391 16.722237
30.168377 43.60621 19.068542
29.850943 43.562885 19.823362
29.868702 43.62653 20.396063
30.110134 43.72031 21.035124
30.178677 45.004333 11.661044
29.87911 45.00017 12.549667
29.72236 44.860798 13.557136
29.61551 45.06234 15.2652645
29.63675 45.218586 15.795489
30.132473 44.36278 19.039135
29.922033 44.516327 19.805258
29.821087 44.161705 20.345816
30.158564 44.603973 21.324028
30.408697 44.581573 21.936264
30.374063 45.37904 11.029437
29.74111 45.92423 12.288578
29.572388 45.617794 16.035372
30.174368 44.976265 19.653091
30.07001 44.95639 20.650154
30.269876 45.27443 21.171877
30.307161 46.80173 11.0637865
29.72859 46.256905 12.105496
29.177156 48.07324 16.774862
29.877306 49.91039 9.978811
29.281315 49.05224 16.806599
29.72481 50.544365 9.664125
29.956259 51.696346 9.175461
29.573769 51.263092 9.428058
29.615145 51.163563 16.135761
30.067316 52.58611 9.172698
29.545322 52.39476 9.460594
29.923418 52.60305 16.672289
29.751167 53.37177 9.789701
29.421373 53.357574 10.308254
29.405737 53.51644 11.261764
30.137596 53.766052 17.137053
29.966873 53.747147 10.050276
29.811382 53.799877 10.482307
29.735386 54.640472 17.205069
30.04514 55.221615 13.238537
29.522852 55.110386 13.780347
29.698656 55.567257 17.328863
30.066664 55.498432 17.644203
30.24314 56.41074 13.148264
29.490585 56.394413 14.603396
29.419464 56.6639 16.639534
29.727373 56.40282 17.138365
29.878366 57.129433 13.9933605
29.956383 57.322983 14.35064
29.72397 57.22159 15.535606
29.754427 57.17194 16.325012
29.961193 56.901516 17.054043
30.311672 57.90817 14.209298
31.102802 41.93628 15.158553
30.831614 41.997044 15.795871
30.896719 41.912827 16.300394
30.888838 41.997406 17.065258
30.809275 42.438946 20.26985
30.8701 43.20044 13.763273
31.164694 42.42531 14.425781
30.728815 42.47829 15.449107
30.502829 42.5133 16.523697
30.550411 42.840298 17.33222
30.883509 42.64474 18.49434
30.53128 42.602844 19.97256
30.556204 42.69484 20.230158
30.709814 43.015324 21.112669
31.235401 43.81638 10.621517
30.966423 43.856705 11.390528
30.946087 43.730816 12.497767
30.461697 44.043198 13.26341
30.674595 43.28973 14.71583
30.510757 43.55445 17.318846
30.521936 43.520576 21.424135
30.829477 43.97561 22.039165
31.237064 44.70849 9.815003
30.83499 44.404915 11.069116
30.476955 44.741993 11.470237
30.77654 44.52622 22.249186
30.69065 45.399345 10.803664
30.339903 45.586308 16.20197
30.980722 45.09541 17.652094
30.814121 45.359867 18.718042
30.704605 45.29191 22.14571
31.244562 46.530045 9.749792
30.641558 46.72427 10.466752
31.240223 46.461323 18.846016
30.70981 46.488308 20.50362
30.682434 46.298702 21.173882
30.50208 47.986465 16.706614
31.041384 47.033016 19.727478
30.951221 47.00465 20.494684
30.932667 48.42428 10.853946
30.232988 50.2197 9.698539
30.212437 49.0038 16.83169
30.957975 51.046707 9.177342
30.570417 51.478428 8.992497
30.559824 51.402424 16.521395
30.698406 51.781853 16.800129
30.735916 52.376984 8.8833275
30.436443 53.064312 17.0677
30.657791 53.06174 9.124371
30.493502 53.442398 9.473518
30.634073 53.728996 17.221725
30.549551 53.760094 9.827279
30.589134 54.062885 10.656496
30.741276 54.688305 17.663628
30.516563 55.44561 17.774174
31.107645 56.4392 12.573533
30.457064 56.447517 17.5043
30.637915 56.070427 17.744173
30.922846 57.336475 12.836162
30.41512 57.692627 13.533001
30.348522 57.40453 16.587128
30.516878 56.9388 17.2129
30.772118 57.76316 13.234093
30.72995 58.0591 13.794927
30.735939 58.167526 14.208147
30.714018 57.831944 15.341558
30.884264 57.56756 16.398285
31.932547 41.149654 14.86177
31.911264 40.881523 15.493641
31.86282 40.983345 16.179684
32.250183 40.83229 17.08954
31.909424 42.031147 13.90078
31.640581 41.574814 14.636404
31.422203 41.33343 15.629486
31.387201 41.40548 16.048365
31.367157 41.814735 17.509356
31.56783 42.18367 19.706608
31.512058 42.251476 20.339855
32.18013 43.064907 8.691454
32.084427 43.066452 9.643591
31.968834 43.20314 10.4858265
31.954166 43.13169 11.992774
31.329313 43.11975 12.741983
31.81006 42.372494 13.348232
31.459652 42.778244 21.23542
32.24697 43.641685 8.032125
32.036068 43.653114 8.493337
31.50089 44.025616 9.520698
31.506475 43.419876 11.534393
31.534193 43.685555 22.207691
31.822351 44.06586 22.58007
32.239918 44.574787 7.9179354
31.89989 44.427395 8.745114
31.67608 44.17095 9.219866
31.612999 44.583755 22.693232
32.36212 45.191765 8.049734
31.26668 45.550434 22.468906
31.478397 45.268375 22.634096
32.173264 45.89932 8.253599
32.085938 46.073093 8.507351
31.638725 46.33248 9.426784
31.464794 46.30725 22.300003
31.601173 47.59124 18.969166
31.854113 47.55677 21.418802
32.18544 47.362965 22.186054
32.160397 48.100468 17.43611
32.220108 48.147438 19.73697
31.749462 47.70774 20.745642
32.320415 48.60991 22.215794
32.383434 48.910877 22.89581
31.17781 49.69364 9.939843
31.512152 49.440407 17.098345
32.381256 49.13487 22.67886
31.615479 50.176224 17.15878
31.245907 51.65236 8.9195795
31.74345 51.545326 17.21181
31.318035 52.37585 8.904087
31.371323 52.84456 17.344088
31.222792 52.983643 9.140322
31.571705 53.36943 9.573095
31.966253 53.40482 17.426422
31.514433 53.78358 17.583862
30.958504 53.732807 9.739758
31.25012 54.07429 10.60079
31.735529 54.52831 12.238894
31.635023 54.790565 17.622107
31.402653 55.908554 17.783682
31.709602 56.59174 12.3256855
31.5962 56.67821 17.49341
31.114841 56.116955 17.74577
31.622332 57.294918 12.639555
31.48363 57.393547 16.542295
31.448988 57.01417 17.198795
31.479748 57.805862 12.943287
31.591383 58.232773 13.74248
31.448116 58.306145 14.394912
31.413296 57.928646 15.699004
31.303526 57.64952 16.115105
32.66852 40.340485 16.854885
33.034435 40.2103 17.541668
33.280716 40.179157 17.848232
33.00031 41.244514 13.639242
32.45927 40.83678 14.928944
32.452736 40.653675 15.477038
32.44393 40.533787 16.58902
32.852 40.840485 18.172417
32.948532 42.412247 9.055631
32.97496 41.855476 12.661989
32.38292 42.004917 13.491004
32.366085 42.32787 20.498203
32.760105 42.916 8.02509
32.827473 42.635468 8.549943
32.352104 42.83861 9.321548
33.11247 43.64173 6.9407916
32.769245 43.36996 7.4844527
32.82479 44.08999 22.667322
33.113667 44.49297 6.7769213
32.50837 44.42591 7.5542336
32.693836 44.566895 22.964813
33.039394 45.287594 7.1221356
32.620426 45.07132 7.407376
32.666817 45.55001 22.875992
32.84294 45.95531 7.706387
32.51603 46.274986 8.3649645
32.49735 46.83359 8.977537
32.115654 47.874886 10.280158
32.570255 48.497692 23.199879
33.01014 48.625584 23.874512
32.24806 49.942024 17.49367
32.897045 49.175335 19.071342
33.32276 49.775925 20.211721
32.576553 49.59572 22.026615
32.62061 49.315994 23.243534
33.065773 49.280167 23.938704
31.968777 50.573933 9.806032
33.08055 50.11786 21.71262
32.94932 50.157185 22.553429
33.08398 49.86366 23.621458
32.036873 51.95408 9.270501
32.20358 51.58774 9.591838
33.304905 50.696312 22.43231
31.925743 52.30623 9.197494
32.416252 52.264656 9.798417
31.846985 53.060448 9.407748
32.391926 53.39214 10.700948
32.16982 53.237938 17.49057
31.822859 53.7295 10.404382
32.527473 54.890095 17.353636
32.615997 55.038845 17.024328
32.7079 56.356503 12.3742285
32.084255 56.297184 17.420603
[...]
POINT_DATA 3152
SCALARS features_00 float 1
LOOKUP_TABLE default
0.43997854 0.44232845 0.45665 0.45685548 0.43918473 0.42392424 0.45269603 0.42464125 0.40816897 0.44268578 0.43174398 0.48164666 0.47477633 0.5024203 0.505966 0.4455297 0.43871355 0.41102618 0.4448392 0.48348606 0.49935505 0.44784546 0.4588679 0.41952294 0.4532594 0.4832465 0.45129278 0.4496226 0.4401914 0.38745362 0.38491917 0.4261742 0.42829627 0.42552397 0.3780425 0.37938106 0.3033552 0.3815368 0.30814728 0.270472 0.21982685 0.28152415 0.36076325 0.35318792 0.28706574 0.39577353 0.41350964 0.4035995 0.39976496 0.38507074 0.42750204 0.44125724 0.4868411 0.40271178 0.49301115 0.4710459 0.4075097 0.40304363 0.44067132 0.4221722 0.50140136 0.45620537 0.5629823 0.4969244 0.60748553 0.51178336 0.39916304 0.22135901 0.24946555 0.30413544 0.6099831 0.56423277 0.36412302 0.24543098 0.22442275 0.30499557 0.35572404 0.17724347 0.3420334 0.5085536 0.52725536 0.6180936 0.64350986 0.53513956 0.57419616 0.6441326 0.6543997 0.60029066 0.65899235 0.2628671 0.276933 0.5416593 0.578727 0.5941411 0.14486197 0.12729613 0.12972474 0.4823926 0.5738985 0.6146217 0.6291908 0.19266908 0.19083048 0.23255397 0.32251656 0.32166052 0.46426237 0.56968725 0.6207118 0.62228847 0.5928815 0.21726994 0.22508128 0.33960867 0.49476317 0.58720887 0.57767844 0.19297662 0.22378534 0.4603675 0.4350362 0.3764981 0.5215473 0.6780158 0.5957016 0.18179922 0.7317287 0.6650795 0.2800128 0.663479 0.5951315 0.46173042 0.39655945 0.65640515 0.60400045 0.55803454 0.36326995 0.34619266 0.6546557 0.6569352 0.55298233 0.49789393 0.67771393 0.694463 0.5670138 0.60267925 0.6520726 0.70325875 0.718052 0.66348124 0.2982714 0.3177346 0.32351524 0.30445972 0.50343674 0.115527414 0.2292547 0.2979564 0.31062517 0.27115676 0.3068989 0.5161482 0.53627086 0.57191634 0.23108979 0.16473147 0.1099153 0.10993371 0.18303512 0.21818146 0.6064408 0.55610156 0.30873153 0.19386335 0.18897831 0.5360004 0.23046498 0.26236063 0.13152917 0.29017726 0.5421813 0.28454667 0.20391935 0.28930068 0.3931965 0.46021008 0.2358908 0.30455294 0.31652108 0.11523037 0.50039876 0.20159918 0.67743754 0.7130095 0.10715541 0.14823231 0.7951285 0.2897388 0.7631469 0.7227163 0.37253568 0.6976099 0.61986125 0.52924293 0.64080364 0.62462676 0.7157593 0.692145 0.66912603 0.659884 0.7387669 0.73245215 0.68699765 0.7061678 0.70657444 0.7202314 0.72926116 0.28757071 0.3065645 0.30717754 0.2502821 0.21412581 0.278805 0.31795013 0.32099634 0.25985005 0.37580642 0.43318832 0.5586868 0.4602784 0.29990554 0.079726376 0.08042826 0.14914031 0.5011248 0.5853522 0.54395974 0.38757566 0.13119721 0.45778942 0.35276303 0.50553036 0.46642566 0.43117136 0.37333575 0.4463901 0.44756612 0.4005248 0.385314 0.36586955 0.32305312 0.41082108 0.16525999 0.22515097 0.22324064 -0.38529766 0.15150946 0.2277605 0.29741526 0.40380728 0.43291417 -0.109862044 0.40653646 -0.05396112 0.77644324 0.12605566 0.8077126 0.26611394 0.7861409 0.7435352 0.3117076 0.37503508 0.7120999 0.626431 0.24711916 0.4726898 0.6253488 0.6747149 0.68033075 0.67174804 0.73590416 0.70568347 0.70652854 0.7387699 0.78626907 0.7714827 0.7249025 0.7124287 0.23367998 0.13567974 0.06393804 0.20113766 0.26515448 0.27859488 0.265297 0.0861081 0.5161078 0.17253071 0.19100443 0.33345234 0.6390068 0.581613 0.51448 0.6722853 0.66072637 0.16868797 0.58182627 0.54709303 0.1609107 0.4976995 0.49441653 0.15775685 0.41583455 0.36703095 0.3024033 0.15320459 0.39420894 0.49273944 -0.13639888 -0.13146664 0.1548765 0.39549756 0.47692707 0.531926 0.614615 0.3789823 0.4685495 0.5186472 0.72195965 0.62921906 0.43633413 0.7563213 0.6091148 0.75360703 0.56364775 0.28375894 0.6621299 0.3975265 0.40411645 0.66877556 0.5999652 0.5808961 0.6529262 0.6356804 0.7934382 0.77088237 0.7165364 0.3086319 0.24216813 0.28997952 0.31297043 0.3044582 0.27057654 0.23487942 0.2852916 0.2667843 0.27392656 0.2109735 0.1827583 0.040053234 0.21522757 0.22686067 0.1865225 0.116267845 -0.06491185 0.027089521 0.105444625 0.15789193 0.17841634 0.21002492 -0.042838126 0.52532315 0.41696787 0.14105842 -0.07469337 -0.27716938 0.03219516 0.28217345 0.7345935 0.6781187 0.44552127 0.3153333 0.14232999 0.16054538 0.31488967 0.35171854 0.66863626 0.7030796 0.16624546 0.30090603 0.5914098 0.59751016 0.105617814 0.19446465 0.51168287 0.50051296 0.043162264 0.43715435 0.10143572 0.16521028 0.30664095 0.47070575 -0.09323257 0.53247595 0.5509392 0.5606641 0.58053124 0.20316169 -0.20428748 0.119029105 0.27139872 0.3573169 0.4981715 0.53979516 0.26229337 0.108393 0.29912025 0.33435705 0.4178844 0.44758326 0.47789347 0.4844848 0.40948528 0.15972991 -0.00595152 0.13562787 0.031306952 0.22953008 0.27107304 0.3724547 0.7507235 0.55298734 0.83236766 0.74712366 0.63868654 0.59855545 0.6921991 0.6460314 0.67489195 0.73971844 0.78091705 0.55135936 0.6184186 0.70147467 0.76235795 0.7219885 0.23575887 0.48796746 0.56419945 0.6403375 0.64925146 0.6250657 0.19952533 0.25473976 0.27906775 0.29114628 0.29212812 0.31156343 0.4320166 0.49181622 0.4795937 0.26186132 0.23677647 0.2592247 0.15918759 0.228512 0.26954845 0.20435606 0.15715438 0.101855054 0.110768974 0.21650796 0.10818935 0.13034937 0.081409715 0.093266785 0.08916021 -0.029024243 0.07248198 0.0389277 0.050464086 0.086990684 0.15421487 0.120998815 -0.113084555 0.23742646 0.25744933 0.4437089 0.36559206 0.27393124 -0.010846116 -0.19116731 -0.1668294 0.13401487 0.31118527 0.3443309 0.33243263 0.7081381 0.623276 0.47528654 0.2575931 -0.17609832 0.35277838 0.34112704 0.68663335 0.33135837 0.53744954 0.2324704 0.2723394 0.48011047 0.44351426 0.11504601 0.40095228 -0.00029154122 -0.015207872 0.4368226 -0.17672487 -0.11440893 0.51983535 0.57436615 0.50545496 0.55533653 0.2844123 0.3340424 0.39679456 0.44728976 0.29454413 -0.019695818 0.043391567 0.13212946 0.58155024 0.52028275 0.5717451 0.6454939 0.7162723 0.7912295 0.7760496 0.54669017 0.6826705 0.6184926 0.29990548 0.5823828 0.5061933 0.22615334 0.3852316 0.3724107 0.2813574 0.25373515 0.28517777 0.27369368 0.28960726 0.2869315 0.16305307 0.20692013 0.20336886 0.22273213 0.06903523 0.13999234 -0.031636596 0.052697815 0.11103447 -0.04450838 0.025843285 -0.08176038 0.28154644 0.596066 0.50504744 0.344908 0.30861557 0.28769672 0.28488883 0.2396357 0.52742064 0.25038594 0.39813355 0.34279305 0.19179231 0.34934908 0.09857274 0.05129044 0.27692664 0.15052497 0.2290084 -0.18813406 0.47398618 0.536001 -0.05619916 0.50856644 -0.073337555 0.31785357 -0.43644932 -0.40837628 -0.17251557 0.16831884 0.18734267 0.42929032 -0.06876225 0.3965069 0.3028786 0.3519562 0.33529478 0.38455218 0.4500155 0.4663022 0.34284198 0.36368376 0.55011135 0.53415 0.46406907 0.42387292 0.58198047 0.65063 0.489659 0.46713364 0.431797 0.3428244 0.25191402 0.038695708 0.47298858 0.33038217 0.23233934 0.18074717 0.28568202 0.24112871 0.2633857 0.2616254 0.23199162 0.20091057 0.2636904 0.19242266 0.13870554 0.14423856 0.012694359 0.10442807 -0.072943576 0.058204845 0.091801405 -0.080824345 0.32709032 0.2919482 0.15170279 -0.16050187 -0.115275785 0.116692945 0.48553702 0.15342471 0.43248957 0.25954652 0.13259007 -0.12829337 -0.018011723 0.27946037 0.24186495 -0.28262344 -0.21238354 0.17244643 0.2294981 -0.26379636 -0.20862898 0.45182592 0.43368113 -0.071772054 0.38125807 0.10278559 0.24530295 0.34466046 0.34049374 -0.28980803 0.0038082004 -0.09936088 -0.026400954 0.19043297 0.26629442 0.23360343 0.23023741 0.0027358877 0.22722009 0.28914893 0.121257044 0.28511184 0.3409161 0.4141884 0.24901621 0.15234922 0.047902398 0.13734864 0.3787507 0.54719937 0.49180013 0.39329383 0.120901674 0.2514783 0.37510777 0.4526561 0.4405959 0.41572738 0.58459324 0.5804452 0.5468285 0.4736716 0.07683124 0.1398 0.3255321 0.39461917 0.39892203 0.40769976 0.5544281 0.5130284 0.36276484 0.3107376 0.31518564 0.3059528 0.43965787 0.75014615 0.7139712 0.8159307 0.83993834 0.74635553 0.6796284 0.7505835 0.8416504 0.8434334 0.7305459 0.67770016 0.77882814 0.8662187 0.8529223 0.7686958 0.9005853 0.8953563 0.5822383 0.55559534 0.520586 0.4596832 0.56352675 0.57223856 0.5479584 0.4816834 0.43403935 0.47876126 0.44847703 0.5967819 0.46708274 0.5205118 0.48362035 0.292392 0.22107755 0.22967944 0.22109643 0.22136766 0.2323462 0.20499304 0.06968874 0.14100674 0.10395028 -0.088293396 0.09996059 0.09278792 -0.15664962 0.08833419 0.078742236 0.17200403 -0.16466409 -0.012091145 -0.49372378 0.12306656 0.09049833 0.116449855 0.09312029 0.24832307 0.2791538 -0.2995051 0.22933574 0.17650446 -0.29403025 -0.34794647 0.16527914 0.37134144 0.45410424 0.5179462 -0.23367092 0.0782602 0.20487055 0.29529828 0.39869028 0.46839857 0.5333495 0.22803652 0.29743916 0.36599907 0.44088084 0.50048333 0.41688395 0.09148972 -0.21425048 0.3699216 0.41819778 0.4121111 0.2747962 -0.08851626 -0.13138823 0.3321737 0.33248913 0.41411066 0.33363166 -0.23634979 -0.1412172 -0.088336885 0.03981351 0.1959857 0.3320747 0.4239939 0.47301877 0.41417783 0.21228653 0.18169232 0.030878672 0.33399394 0.42682427 0.4925351 0.46289605 0.36622846 0.34106517 0.44303858 0.47585416 0.5559227 0.39104337 0.32514256 0.5672036 0.039281666 0.048864223 0.35207936 0.3579923 0.5525119 0.55318594 0.2551618 0.009136348 0.055559218 0.19707158 0.2764455 0.24193105 0.28488094 0.49196112 0.08783194 -0.0036573447 0.18943247 0.2433327 0.2489241 0.24799174 0.38268623 0.30958456 0.3506562 0.20763257 0.6487005 0.5825701 0.7689471 0.6694474 0.6543004 0.60294807 0.6262731 0.6861974 0.6112299 0.70246124 0.7553666 0.6904843 0.62671906 0.883788 0.91464436 0.93452394 0.78797317 0.9583192 0.9754964 0.8084034 0.86807096 0.89119285 0.8963055 0.66923887 0.818928 0.8436942 0.80066663 0.57695246 0.57080406 0.5538506 0.50071764 0.39002568 0.58028245 0.5705 0.30346727 0.11585115 0.043026112 0.44754636 0.5492555 0.46095598 0.14664519 0.44179115 0.41401315 0.4627474 0.20655991 0.19352224 0.27765876 0.51025295 0.4827256 0.465723 0.11001538 0.47964847 0.4436404 0.040320214 0.38963756 0.31871298 0.20363136 0.011579454 0.28854647 0.2383791 0.04972593 0.16188014 0.23808345 0.22128178 0.03677512 0.15887018 0.09596656 0.050915502 0.29545274 -0.049497493 -0.04394761 0.2738369 0.275391 0.13019723 0.17629054 0.12839665 -0.18833081 0.02267275 0.22309142 0.0026002675 0.25332758 -0.35888588 -0.038617235 0.15886639 0.33174002 0.5082743 0.2732064 -0.1352621 -0.31933153 -0.27611446 0.10677169 0.35367215 0.45783246 0.5518532 0.5889263 0.1940948 -0.12598164 -0.19828597 -0.2085113 0.15809502 0.5850732 0.59356725 -0.19542927 -0.25994182 -0.2420824 0.5302397 0.43536764 0.43626678 0.3038837 0.32994348 0.33940798 0.43979162 0.4593184 0.36567628 0.28415895 0.26295638 0.45967042 0.42964235 -0.3639263 0.38588253 0.2798814 -0.11133233 -0.0336251 0.045958243 0.16841185 0.30632567 0.43529582 0.37073418 0.506512 -0.013374774 0.05960998 0.15833367 0.31075543 0.41054404 0.4802221 0.46804768 0.46593323 0.27061903 0.50682133 0.51162124 0.4839366 0.005445618 0.25716406 0.22088322 0.15498707 0.013696246 -0.024646334 0.33572945 0.34703618 0.41799787 0.45846283 0.35786185 0.10473807 0.15030897 0.089826785 0.31132036 0.44113344 0.4797146 0.4247634 0.49837312 0.45135733 0.43269777 -0.00029931962 0.5435081 0.54644704 0.5320636 0.5352979 0.60996187 0.528141 0.45991468 0.6441952 0.76704717 0.5142921 0.8666583 0.7925403 0.6190914 0.9353099 0.964338 0.9620836 0.9120426 0.8423533 0.8927823 0.94357467 0.9419608 0.7865571 0.9232521 0.9051691 0.60604763 0.8334712 0.79939985 0.48318598 0.49692112 0.46015102 0.3550705 0.3465331 0.24715309 0.33467007 0.6920817 0.71079046 0.44173607 0.2695085 0.08851899 -0.105083376 0.21015632 0.601624 0.104045026 -0.31021628 0.48300767 0.5197742 0.049612224 -0.048674688 0.5547632 0.53007877 0.37628335 0.19819981 0.4920082 0.52984434 0.4297068 -0.15947956 0.32923272 0.34914 0.20720881 -0.023999356 -0.083505556 0.270961 0.22373185 -0.09031272 0.29605 0.29864544 0.07751659 0.26211134 0.18080008 0.2031894 0.1798313 0.2129314 0.18611714 0.1813567 0.22970437 0.24549538 0.024154827 0.282739 0.28611198 0.26731998 0.44503587 0.6012847 0.30642432 0.2796045 -0.4139816 0.60758436 0.6085141 0.23680457 -0.5513349 0.5995773 0.15257213 0.23033004 -0.34086657 -0.47519732 0.53641915 0.57108825 0.3575892 0.3786279 0.15201156 0.42769384 0.22706893 0.019373775 0.30784214 0.34237546 0.0239982 0.035657823 0.21322998 0.3016669 0.46159282 0.45028746 0.41978586 -0.09855245 -0.050314814 0.41715816 0.44767284 0.4070284 0.38170823 0.3171697 0.33284616 0.3391791 -0.013757542 -0.07048445 -0.08252328 0.44606054 0.46919584 0.47299722 0.44408762 0.44374314 0.081258826 0.1700133 0.3019588 0.46348745 0.48102045 0.48974884 0.46546507 0.124680005 0.3677066 0.42399246 0.50800425 0.49133497 0.49126098 0.47979504 0.49435306 0.5578209 0.49220937 0.38670832 0.70369804 0.42734247 0.39716324 0.8903343 0.70647347 0.49935186 0.93948877 0.9542012 0.9270576 0.82138574 0.81710875 0.9048631 0.95850384 0.9558374 0.727226 0.74842787 0.9150654 0.87069845 0.54622436 0.81401503 0.38946694 0.37968677 0.31794888 0.2924775 0.24815789 0.7421329 0.19448537 -0.030423343 0.6718352 0.41054696 -0.109866455 -0.12042999 0.21954598 0.33965147 0.034943867 0.53480405 0.5701746 0.5798249 0.43200803 -0.17272097 0.49487603 0.067105584 0.18489811 0.33139622 0.43692923 0.07048315 0.14776742 0.20594215 0.33526585 -0.012817949 0.18800877 0.15648364 -0.117146075 0.22354782 0.27475107 0.09951457 0.19082081 0.23007229 0.22470975 0.24800602 0.16329795 0.23768055 0.271459 0.16591957 0.25905046 0.34069496 0.6005503 0.35471255 0.60593235 0.27859944 -0.3009591 0.59653646 0.11123944 0.2506814 0.2511295 0.0697077 0.28468284 0.09741904 0.28782034 0.35492373 0.2933144 0.26851255 0.009714529 0.09618842 0.31339306 0.36299434 0.42228138 0.2853307 -0.056386936 0.26074567 0.040401053 0.1265643 0.283903 0.27581614 0.35970375 0.07306312 0.385644 0.40068072 0.3880391 -0.025895327 -0.07732464 0.11403552 0.50462496 0.51653564 0.43828458 0.120787114 0.1266881 0.42680138 0.47528547 0.4912637 0.5018977 0.43188816 0.118544415 0.40291655 0.3093553 0.35176778 0.36269498 0.34661862 0.8881999 0.834985 0.6941433 0.919291 0.89238274 0.78854823 0.86027515 0.9220499 0.9533534 0.6619957 0.74919975 0.90881217 0.5930367 0.81958216 0.7803114 0.43906707 0.37260902 0.22553732 0.22520916 0.20591627 0.1836537 0.40073916 0.6873426 0.72159624 0.53456664 0.5292753 0.16996731 0.07514992 0.0881054 0.05893289 0.64373684 0.43495333 0.5928035 0.41327184 0.33989185 0.5105396 0.56688327 0.36873856 0.530516 0.57312256 0.5886724 0.4054112 0.29692888 0.37133902 0.55965024 0.6118473 0.4495051 0.49818158 0.22739808 0.3137337 0.46595114 0.575629 0.35882437 0.17958346 0.2885859 0.33418998 0.5401205 0.17359866 0.25535658 0.10921698 0.27072212 0.17993471 0.15222248 -0.13554113 -0.05615629 0.27022344 0.23127237 0.306879 0.12389144 0.24360095 0.2536311 0.12805237 0.23787102 0.18197155 0.22701791 0.44826695 0.40845853 0.4651333 0.4948979 0.42344174 0.36852074 0.5636848 0.26846156 0.14757566 0.5198441 0.19331306 0.12727532 0.16451603 0.2282196 0.2958184 0.4731278 0.24296129 0.35161594 0.54441595 0.14815558 0.3180258 0.476547 0.63959694 0.512587 0.40747657 0.6368898 0.8017784 0.0410918 -0.06153287 -0.11002174 0.35956436 0.7159845 0.75716174 0.2803292 0.19173709 0.4362486 0.38733155 0.45956188 0.48546988 0.19328938 0.51096076 0.076746285 0.5157349 0.48004448 0.29602355 0.3397252 0.3850736 0.4244305 0.47842574 0.50390977 0.5103649 0.3767468 0.094215736 0.16101862 0.003885867 0.1571524 0.80704015 0.84081626 0.73272526 0.76997054 0.83154285 0.8566217 0.5428171 0.64086145 0.6794585 0.71849096 0.7542883 0.51547694 0.46063915 0.37748522 0.29469442 0.16734906 0.3235551 0.26698408 0.5731081 0.63393164 0.58018696 0.56024766 0.1999051 0.12266128 0.14045429 0.484937 0.6156095 0.5777698 0.52620906 0.47012538 0.43286783 0.6210351 0.69888985 0.5639154 0.65697795 0.67972934 0.67865753 0.48281103 0.53497756 0.49253607 0.63928545 0.66554606 0.40400845 0.45525533 0.5942577 0.6442672 0.65676135 0.15496424 0.21941741 0.18135965 0.51716006 0.5942929 0.20419669 0.16374323 -0.025805753 -0.011736004 0.22629447 0.4382435 0.3292175 0.25641447 -0.2589685 0.3664891 0.34196898 -0.013586815 -0.31959504 0.16904962 0.2641357 0.15362036 0.40169623 0.38779828 0.08896564 0.45240158 0.048767246 0.47822148 0.30535415 0.43860182 0.32907417 0.32833427 0.2754376 0.120258525 0.64828855 0.6557139 0.80593705 0.8464715 0.2212888 0.90034944 0.18505466 -0.1000958 0.13602008 0.11956751 0.6131023 0.66236734 0.7277481 0.82794166 0.9072678 0.6980276 0.76150167 0.81252027 0.48147124 0.47492683 0.14928524 0.5200864 0.49896204 0.15074234 0.49282032 0.5385301 0.53301775 0.18984157 0.12648383 0.2762101 0.45681173 0.2217919 0.09740543 0.37413812 0.39487886 0.40722787 0.4049964 0.4334238 0.37484363 0.085076965 0.53048664 0.12296933 0.28545284 0.14412856 0.56702876 0.6127733 0.62095046 0.5292094 0.4725022 0.39465407 0.31961083 0.2047534 0.31045276 0.37642556 0.37707186 0.3678096 0.42597905 0.4887345 0.60415834 0.5545831 0.12061487 0.1578163 0.3131121 0.45929378 0.6175221 0.61697084 0.600888 0.53670335 0.023676772 0.027257249 0.6692399 0.70989907 0.7010822 -0.023263438 0.68249583 0.6839194 0.4648838 0.41871136 0.23732305 -0.44090956 0.68528533 0.6833432 0.43631086 0.40059105 0.32204357 0.6787251 0.68323016 0.58437365 0.64153033 0.328516 0.3034599 0.13339745 0.52097976 0.6556545 0.38203397 0.3652753 0.6329388 0.3895976 -0.20073578 -0.19604793 0.4177228 0.54897505 0.70453113 0.750935 0.35868564 -0.08212816 0.37934476 0.63576365 0.69094026 0.19798672 0.32206762 0.42271435 0.34561387 -0.12266973 -0.01957575 0.43873015 0.43457788 0.3994325 -0.4475148 0.35672408 0.32413906 0.25555086 0.60109967 0.6744189 0.20065106 0.17529789 0.7145136 0.79066837 0.83821654 0.8648886 0.90585905 0.8911048 0.49957472 -0.048107207 -0.0063771456 0.039031953 0.6454614 0.6905042 0.8850124 0.93161345 0.56716824 0.45642143 0.20646143 0.72571397 0.76776683 0.83650076 0.404642 0.10301607 0.46631598 -0.08513889 0.19514643 0.10627354 0.4368039 0.52165043 0.5126912 0.07704696 0.34097964 0.33113104 0.29206595 0.33418807 0.41044578 0.41997945 0.42183658 0.43971062 0.41067275 0.41105926 0.7566639 0.6858828 0.49071974 0.43182686 0.30959374 0.3939278 0.44093347 0.41558534 0.35813713 0.29151607 0.60300964 0.5484117 0.4913283 0.031483717 0.037437137 0.13013716 0.62108266 -0.0016827211 -0.13053489 -0.10710189 0.5500102 -0.1342889 -0.11931016 -0.12023631 0.31096116 0.036158957 0.5300071 0.59522843 0.6689357 0.6158152 0.66265804 -0.12864524 0.6450055 0.66108257 -0.2229968 0.6655669 0.35402793 0.1946668 0.6220499 0.36706635 0.383032 0.3775524 0.81828344 0.37645173 0.36710626 0.75673234 0.8118287 0.34248003 0.74381053 0.7876197 0.25052574 0.1853175 0.43055165 0.7132767 0.39187464 0.2105304 0.39116383 0.32567185 -0.21190006 -0.15279941 0.4070253 0.34307745 -0.383015 -0.47053474 0.33134907 -0.272678 0.26757365 0.4346885 0.5729593 0.20155472 0.6517044 0.17464441 0.7207611 0.16869552 0.8413751 0.8774773 0.36335456 0.051156793 0.17476718 0.90389407 0.51661134 -0.0076568723 0.035538614 0.042178784 0.5732839 0.66727465 0.8467499 0.8999958 0.9257276 0.6319121 0.80184007 0.8575399 0.6471962 0.6269922 -0.08954195 0.2719789 0.14257179 0.50806093 0.31246245 -0.09773736 -0.016253151 0.19124986 0.43355656 -0.08330975 0.35615295 0.28447807 0.12945108 0.26132143 0.38759303 0.443804 0.4494894 0.42934343 -0.14511186 -0.16107994 0.162794 0.31203264 0.34809998 0.41242632 0.3729722 0.37049353 0.296673 0.45372936 0.4863063 0.3377444 0.44969338 0.39746478 0.41410115 0.49374735 0.65559113 0.7377443 0.7130405 0.35714 0.39676747 0.34569988 0.31303245 0.54599476 0.4727317 0.41783804 0.28173962 0.21481118 0.5787559 0.55634296 0.15158153 0.51502526 0.4131746 -0.23860988 0.17187542 0.2073741 0.27351016 0.33284056 0.4854812 0.55252886 0.37813708 0.51914424 0.5755553 -0.18914995 -0.25190553 0.52019167 0.43044293 0.45095104 0.4294631 0.04358962 -0.20656967 0.4395443 0.3906651 0.40286046 0.33921862 0.4847547 0.71595806 0.3621503 0.8179312 0.3459793 0.30440587 0.8367168 0.27582905 0.24706009 0.74130696 0.7803074 0.18354869 0.7282767 -0.04836838 0.32915378 -0.04732939 -0.09286581 -0.14979053 -0.0888443 0.2644459 0.095997356 0.1831002 