# vtk DataFile Version 2.0
Really cool data
ASCII
DATASET POLYDATA
POINTS 3132 float
-10.795607 64.906715 32.038086
-10.7837925 64.80264 32.43424
-10.78059 65.0349 33.137817
-10.815375 65.42424 31.877174
-10.979077 65.364174 32.451706
-10.87856 65.49309 33.171875
-10.669328 66.50293 31.818308
-11.012357 66.608 32.857506
-10.876041 66.64483 33.277843
-10.604609 66.31126 33.822613
-10.7298565 67.181366 32.04149
-10.798675 67.3904 32.60713
-10.693479 67.353584 33.45537
-10.603262 67.86747 32.93978
-9.651358 62.200974 37.367245
-9.856731 62.815132 36.747772
-9.808361 62.61539 37.55382
-9.678273 62.801205 38.107853
-10.03245 64.21861 32.074615
-10.19224 64.18528 32.581726
-10.094576 64.225136 33.265186
-9.905191 63.37318 35.907043
-10.196317 63.67977 36.523342
-10.071747 63.54298 37.315872
-9.731989 63.418324 38.090733
-9.980561 64.85547 31.290539
-10.360322 64.70286 31.74525
-10.599023 64.5416 32.500675
-10.494768 64.6929 33.301403
-10.223949 64.21687 36.429916
-10.055954 64.36531 37.205154
-9.741772 64.13791 37.953724
-10.169614 65.59746 31.224087
-10.453866 65.29026 31.532684
-9.982396 64.89161 36.682304
-9.867383 64.73817 37.194706
-10.02274 66.3435 31.161093
-10.450696 66.51716 31.445309
-10.201664 66.506 34.204865
-9.74595 66.47753 34.82383
-9.952103 67.21006 31.258608
-10.276972 67.251625 31.595165
-10.5078945 67.728424 33.641434
-10.388295 67.45585 33.874237
-9.96902 68.09394 31.932087
-10.210959 68.21257 32.70459
-10.359513 68.03782 33.284008
-9.897306 68.15269 33.97035
-8.874388 61.44109 37.82108
-9.13847 61.95375 36.795555
-9.244226 61.803493 37.554268
-9.083023 61.84359 38.23029
-9.222357 62.642387 36.029964
-9.531323 62.394695 36.723644
-9.42388 62.41144 38.33183
-9.003627 62.504475 38.765213
-9.5960655 64.20245 31.76516
-9.579141 63.999382 32.47829
-9.473016 63.97474 33.36267
-9.566359 63.61947 38.27465
-8.821145 63.265347 38.790154
-9.548529 64.68647 31.227331
-9.417811 64.26618 38.12811
-9.406366 65.441505 30.96247
-9.168573 65.5974 36.32585
-9.441353 64.98189 37.51442
-8.933106 64.94756 37.870663
-9.321749 66.511345 30.938328
-9.044356 65.58453 36.463215
-9.509894 67.40471 31.070553
-9.074794 67.44966 35.27364
-9.258589 67.87952 31.23773
-9.450127 68.17393 31.626484
-9.729118 68.47173 32.186607
-9.497331 68.25675 34.16668
-9.142567 67.99281 34.919765
-9.261957 68.720695 32.614044
-8.958882 68.973755 33.682575
-8.931274 68.78009 34.30334
-8.376215 61.418118 37.428493
-8.41863 61.369312 37.925858
-8.063753 61.81903 36.165684
-8.473145 61.696877 36.795265
-8.754233 61.523533 37.47762
-8.631862 61.717663 38.407986
-8.690018 62.041527 38.72233
-7.9625816 62.849785 35.345795
-8.471089 62.775124 35.55492
-8.741702 63.912727 32.589443
-8.786304 64.861465 31.040804
-8.25277 64.49661 31.471127
-8.633758 64.561935 38.487106
-8.107469 63.917812 38.91575
-8.311801 65.468864 31.024426
-8.556993 65.40537 37.32152
-8.577127 64.885796 38.274315
-8.404533 66.69958 30.91477
-8.335965 66.06379 36.278526
-8.630661 65.58632 36.88579
-7.5262074 66.96399 43.23461
-8.778043 67.32629 30.911451
-8.517602 67.61235 35.513683
-8.03291 67.34924 35.73022
-8.806373 68.0178 31.227365
-8.598043 68.1035 31.368832
-8.617238 68.17565 35.084866
-8.338837 69.1557 33.472984
-8.377392 68.906296 34.55643
-6.9272795 61.277096 36.56423
-7.0904484 61.200222 37.08724
-7.9161015 61.388607 38.097645
-6.9711494 61.850143 35.61329
-6.675511 61.769745 40.862457
-6.7695565 61.74903 41.08006
-6.66516 62.064255 42.150715
-7.0124207 62.505306 40.47683
-6.9617267 62.491085 41.410576
-8.044692 64.3176 31.78468
-7.082424 63.618137 34.17438
-7.0231857 63.02274 40.753025
-6.905919 63.077168 41.630867
-6.8373933 63.09568 42.048527
-7.4358363 64.604996 32.188442
-7.6557064 64.842804 38.797356
-7.24927 65.895546 42.71608
-7.1474805 65.94015 43.200706
-7.115051 66.579025 31.419485
-6.871275 66.49001 36.592926
-7.803161 65.61871 37.677925
-7.131728 66.877144 41.72401
-7.392761 66.413925 42.512325
-7.338956 66.49618 43.384712
-6.9883 66.87669 44.476875
-6.7836914 66.895355 44.896873
-7.519317 67.444435 31.31045
-7.2873716 67.55737 35.795795
-6.619016 67.23616 40.79132
-7.083309 67.61222 41.702198
-7.427952 67.319496 42.70565
-7.394183 67.46978 43.536747
-7.189957 67.57423 44.421066
-6.889987 67.58771 45.103374
-7.6707506 68.16584 31.739527
-6.724377 68.53666 41.04927
-6.995944 68.451836 41.618168
-7.1348734 68.46296 42.54853
-7.317419 68.139015 43.434444
-7.066842 68.32346 44.521408
-6.86988 68.281784 45.03033
-7.4755964 69.057045 32.961758
-7.15665 69.183174 33.502125
-7.7594576 69.17793 34.03987
-6.7394247 68.96287 41.842747
-6.7775187 69.10518 42.6533
-6.8923526 68.99405 43.65834
-6.7438507 69.075356 44.371372
-6.766758 68.80603 44.936172
-6.146207 61.17608 35.958996
-6.0107875 60.88418 39.571323
-6.4337626 61.25595 40.73528
-6.1070433 61.06614 41.40548
-6.501967 61.517807 40.450256
-6.3977757 61.42613 41.48619
-6.3384447 61.778366 42.25861
-5.8570232 61.97132 43.208435
-5.8819084 62.874886 33.96944
-6.2590446 62.173355 42.55444
-6.099879 62.514088 43.195183
-5.9149985 63.417465 33.47791
-5.9439793 63.105804 43.652424
-5.7356834 63.093464 43.744614
-6.212525 64.16421 40.589138
-5.9696746 64.58815 41.75371
-6.410185 64.22219 42.182404
-6.372546 65.38777 32.027756
-5.8444676 65.20003 40.70004
-6.2880683 65.301605 41.899254
-6.3347025 65.54001 43.453796
-6.018145 65.35606 43.736652
-7.0296283 66.65494 31.387722
-6.5364075 65.861626 37.82931
-6.1814094 66.177895 39.011078
-6.2864537 67.03754 45.41753
-6.181634 67.176025 45.57828
-6.179335 67.260506 31.374367
-6.4170713 67.445145 36.381283
-6.157777 67.0673 37.226067
-6.559614 67.522545 45.440292
-6.349947 67.78259 45.624187
-6.198805 68.027435 31.960814
-5.9657326 68.681366 39.0147
-6.104726 68.27178 39.766216
-6.2490306 68.82011 40.212254
-6.4503226 68.42593 45.43144
-6.1488523 68.10227 45.645393
-7.0112257 69.082726 33.04136
-6.408472 69.25038 33.81471
-6.634258 69.11348 34.436157
-6.1951013 69.29331 35.34391
-5.7936535 69.753685 36.150444
-5.978615 69.820564 37.65216
-5.9139795 69.03167 38.848923
-6.1429706 69.08552 39.56203
-6.284292 69.410545 40.678158
-6.548398 69.13142 42.867702
-6.4348097 69.47483 44.39758
-6.1336403 69.134636 45.22676
-5.7258244 69.799576 35.059006
-5.9678864 70.14815 36.898804
-6.0733395 70.91939 37.858673
-5.7395806 70.63766 38.894444
-6.054416 69.91369 42.262016
-5.9355 70.20678 43.348743
-5.886203 70.34011 44.373512
-5.6712227 70.99518 36.071194
-5.8524113 71.62969 37.674397
-5.8553014 71.451614 38.343987
-5.571967 71.00192 44.211903
-5.567687 72.23862 37.672756
-5.600405 72.13605 38.18671
-5.472386 60.334503 40.21267
-4.7953653 60.260155 41.196507
-5.565251 60.848946 36.050293
-5.291137 60.739414 36.519592
-5.4693055 60.671753 37.47585
-5.3867764 60.711735 38.576138
-5.651437 60.624702 40.362965
-5.2594643 60.524635 41.465363
-5.4702206 61.10119 42.49811
-5.531129 61.54093 35.10393
-5.697564 61.49243 35.343735
-5.399808 61.669735 43.493046
-4.9396615 62.010067 44.086166
-4.6486406 63.757973 27.381004
-4.645389 64.09289 28.56264
-5.57873 63.623108 33.209934
-5.1759596 63.04826 44.329914
-4.6424723 63.804768 45.356655
-4.7095985 64.67955 26.969315
-4.860002 64.59803 27.513126
-4.778627 64.32597 28.038965
-4.6635113 64.43558 28.89344
-5.60058 64.880646 32.108818
-4.8222284 64.58634 44.759087
-4.623751 64.150764 45.52889
-4.76145 65.35456 26.997187
-4.9501166 65.386856 27.574911
-4.897553 65.49724 28.646273
-4.798937 65.7033 29.85034
-4.744137 65.27415 30.549482
-5.046381 65.68559 45.567337
-4.750807 66.04957 27.438328
-4.864821 65.84292 28.064291
-4.7354355 66.20898 29.559765
-5.6240425 66.56065 45.282032
-4.6754155 66.846245 30.37701
-5.555598 67.51879 45.69558
-5.9098415 67.76691 31.820217
-5.236814 68.55238 32.77043
-5.7963395 68.289116 45.68048
-5.134248 70.5706 34.857094
-5.516282 70.50518 35.47672
-5.4987617 70.47333 42.00828
-5.062993 70.620674 45.339233
-4.905276 71.59415 35.198277
-5.409521 71.26199 35.62921
-5.1673303 71.279976 41.949738
-5.251855 71.36405 42.74259
-5.4068885 71.39929 43.34154
-5.3076735 71.34832 44.496986
-5.0921025 71.19569 45.0755
-4.8613253 72.37394 36.133278
-5.0825357 72.41619 36.507336
-5.359411 72.42996 38.48429
-5.1379266 72.28906 39.05595
-4.84101 71.78109 42.065292
-4.8793273 72.09 42.488026
-4.9830446 72.09193 43.436253
-4.8078847 72.066765 44.410213
-4.7889433 73.05323 36.784336
-4.992388 73.06968 37.384315
-4.8942895 73.10521 38.312614
-4.416687 60.212997 36.06937
-4.753646 60.312298 36.47515
-3.8546627 60.150303 37.20413
-3.964577 59.968357 38.396145
-4.664982 60.072353 39.581226
-4.2240157 59.84791 40.864117
-4.4543314 60.203243 41.909424
-4.1424704 60.282402 42.972084
-4.1050735 60.74804 35.05731
-4.7118764 61.11763 43.32499
-3.8302746 62.352066 27.483406
-4.4921627 61.833336 44.318474
-3.815892 61.635536 44.847034
-3.9612262 62.850582 26.836687
-4.2360616 62.817 27.446428
-4.0611005 62.76278 28.215227
-3.7872329 63.14091 29.113644
-3.9921837 63.175926 32.993526
-4.4053283 62.69332 33.69535
-4.549028 62.585304 45.012543
-3.8519976 62.74544 46.306797
-3.874982 63.70444 26.403679
-4.1257505 63.43728 26.660381
-4.475268 63.295307 27.588089
-4.4468226 63.25948 28.103949
-4.380325 63.911175 29.386515
-4.291912 63.949368 29.971796
-4.482831 63.83585 45.77928
-4.0385714 63.26096 46.299595
-4.0483155 64.635864 26.429693
-4.310558 64.56996 26.548918
-4.3090982 64.28482 46.14948
-3.8126407 64.71065 46.79393
-4.006791 65.33992 26.431345
-4.427405 65.579636 26.745104
-4.380108 65.51923 46.286575
-3.8376322 65.199875 46.75094
-4.2541895 66.11635 26.911903
-4.590813 66.418495 28.102821
-4.158318 66.11235 46.16476
-4.145545 66.60207 27.759335
-4.5790954 67.72659 45.546436
-4.269092 67.74447 31.139744
-4.0233436 67.96205 31.51898
-5.068154 68.65055 45.50926
-3.9337368 69.23569 33.423256
-4.1210046 69.81201 45.45232
-4.6657834 69.7103 33.70755
-4.6634593 70.49015 45.605667
-4.646347 71.53735 35.034317
-4.4332056 71.525856 45.418747
-4.437445 71.16351 45.591145
-4.0772815 71.76997 40.80723
-4.262234 72.39255 41.982838
-4.5138054 72.451 42.441822
[...]
POINT_DATA 3132
SCALARS features_00 float 1
LOOKUP_TABLE default
0.7378464 0.72712624 0.71329224 0.75449467 0.75087035 0.7377738 0.77373874 0.7538086 0.698171 0.63822246 0.7727636 0.74835116 0.64860433 0.7085624 0.736657 0.7676651 0.77624404 0.7745831 0.715319 0.7030679 0.66153634 0.7184033 0.75978905 0.75049996 0.7254443 0.74936557 0.73757017 0.7178705 0.6793375 0.6839043 0.6207967 0.6089679 0.7457804 0.7505746 0.5101058 0.53407496 0.7233491 0.7464689 0.5418413 0.33943713 0.7062194 0.73606837 0.6211837 0.58253586 0.7338436 0.723815 0.66499186 0.5687964 0.64686024 0.6346283 0.6857461 0.6980342 0.6257415 0.70885986 0.7512593 0.7203724 0.73513234 0.698472 0.6222316 0.67683685 0.67121726 0.7594391 0.56082416 0.74650383 0.24261926 0.4528411 0.411237 0.6813991 0.2509183 0.67556024 0.28000396 0.66798985 0.691542 0.72142774 0.5402559 0.425574 0.68468827 0.5790896 0.5338581 0.5471834 0.5895622 0.41489583 0.51978076 0.61177146 0.6524249 0.6667552 0.30756575 0.4419502 0.6604444 0.75132483 0.67245054 0.45565057 0.48786747 0.66787875 0.27748895 0.3957644 0.5830175 0.033672106 0.23275179 0.51067644 0.6038184 0.18783543 0.029651128 0.62592924 0.6046218 0.38579816 0.5192865 0.4801815 0.23891555 0.27153167 0.4890206 0.22165246 0.3745456 0.38073084 0.38554358 0.34228685 0.37737077 0.6108656 0.029232876 0.3187861 0.3383585 0.3359748 0.33905154 0.26998505 0.3737522 0.42040157 0.46365774 -0.13567999 0.14850117 0.36952335 0.4088683 0.49268126 0.54483235 0.5170001 0.4674147 -0.031903148 0.20682582 0.35961822 0.4687584 0.54354566 0.58351547 0.55679435 0.47264248 0.22061057 0.2970815 0.39593992 0.51109064 0.57188886 0.5726372 0.42892444 0.33637843 0.40051565 0.27531052 0.33546388 0.44212317 0.4957778 0.5546849 0.15412006 0.21771714 0.34596187 0.34800455 0.3400013 0.37106612 0.37880373 0.31797552 0.04723788 0.3671875 0.31693345 0.009085918 0.22866236 0.21065465 0.14407447 0.13188478 0.18356252 0.23663373 0.05183219 0.17733838 0.31656906 0.23871091 0.45321918 -0.13117078 -0.31620982 0.4618379 0.45938182 0.2506662 -0.18002513 -0.24827304 0.52501243 0.51965255 0.25121737 -0.015066795 0.035867956 0.104947366 0.5549346 0.5159508 0.33353144 0.1582073 0.17031473 -0.026803404 0.12479936 0.17223379 0.021699242 0.029604271 0.13468562 0.33880323 0.445903 0.51521426 0.021421507 0.25015044 0.28280523 0.20644912 0.23561633 0.29697514 0.40588504 0.25874418 0.38000703 0.33844775 0.42413723 0.43101123 0.414437 0.2426924 0.24404636 0.12417539 0.10228859 0.05348196 0.053534884 0.27524114 0.2957989 0.3307532 0.110956654 0.12538168 0.2789109 0.20118627 0.72356296 0.5820191 -0.017850058 0.15328419 0.1943124 0.7302138 0.70805776 0.6430885 0.52678573 -0.1256285 0.120254815 0.22582507 0.7398283 0.71224904 0.55577403 0.41926163 0.2780254 0.1800529 0.7318702 0.65651524 0.4687525 0.33314914 0.2715326 0.39997604 0.15685642 0.009925045 0.47668225 0.13429946 0.15783179 0.20869608 0.45459253 0.22291006 0.247935 0.23301746 0.3019911 0.35179198 0.47333395 0.48732695 0.32784116 0.37639517 0.41288072 0.3424235 0.25676084 0.30384827 0.4183727 0.50407577 0.4169467 0.45388037 0.43026704 0.10075075 0.09259828 0.042921457 -0.03895348 0.1016711 0.14513396 0.21859333 0.17388836 0.09959551 0.24359345 0.76905966 0.15766275 0.051844813 0.7186134 0.7633872 0.7140523 0.5977435 -0.16341813 -0.06019469 0.14785515 0.27642754 0.6544801 0.7009821 0.73294985 0.686568 0.5112694 0.40561807 0.2553161 0.30577135 0.6870724 0.7103274 0.3112547 0.3477291 0.69326997 0.730245 0.26534683 0.3348662 0.72092575 0.64816314 0.22971053 0.6711872 0.21990274 0.027214736 -0.04840777 0.36600912 -0.1042688 0.272621 -0.034999788 0.40829036 0.19095014 0.49366453 0.4672038 0.121858 0.26576674 0.31513828 0.51385033 0.5099952 0.292207 0.38482252 0.4334001 0.38626269 0.25898817 0.38196135 0.5203694 0.40292522 0.36726874 0.33368024 0.3575056 0.39440197 0.35769832 0.32453257 0.3669035 0.3678975 0.35064262 0.15182014 0.22240621 0.34437966 0.32610428 0.3455521 0.3362326 0.073748246 0.07777034 0.058967978 0.028039092 -0.05083732 0.06218244 0.23223644 0.32065305 0.075504124 0.092013076 -0.014616225 0.17546347 0.18881093 0.70402896 0.7419449 0.6578104 0.5566074 -0.01844393 0.60263205 0.6750418 0.64921296 0.5516526 -0.16356662 0.33134955 0.33987457 0.6283922 -0.18309033 0.35585815 0.5838983 0.35206696 0.3431645 0.6289247 0.5634776 0.3378479 0.6573264 0.18235935 0.29186165 0.581552 0.306607 0.23587018 0.08322864 0.130854 0.09873736 0.015544698 -0.15439948 0.0072349496 0.359966 0.40625083 0.18333606 0.50383484 0.4709983 0.19695258 0.3968925 0.49128062 0.5218493 0.5140561 0.33303863 0.2842207 0.48359376 0.47750303 0.54320335 0.55734444 0.5519322 0.60453165 0.6317296 0.52182573 0.5428003 0.4668064 0.3388583 0.34823036 0.22807811 0.20786543 0.29287627 0.30608964 0.27218002 0.3691811 0.41954082 0.41797864 0.2634947 0.34372896 0.32259974 0.3481782 0.3400144 0.33328542 0.27669534 0.23276752 0.20626147 -0.08507848 -0.1001273 0.07229678 0.3119668 0.28694573 0.08294121 0.088966735 0.30424017 0.29967475 0.26523244 0.02476323 0.08796717 0.5921906 0.53734237 -0.034103893 0.01902986 0.4880627 0.5959046 0.23280083 0.31392366 0.502176 0.33955458 0.30600697 0.3075965 0.51436293 0.29866827 0.29136652 0.35251448 0.38447845 0.2522155 0.06435676 0.10347287 0.07350595 -0.11469167 -0.0916422 0.19897038 0.24407996 -0.042378444 0.41229475 0.49741313 0.45743108 0.35256696 -0.023606353 0.46732697 0.4874493 0.45693767 0.3447159 0.16433743 -0.08188715 -0.07601158 0.32633528 0.46655846 0.4981594 0.5079001 0.49976468 0.42699614 0.3458568 0.13890094 0.2875757 0.24398236 0.36674184 0.43616638 0.35838884 0.4355568 0.52516586 0.4633564 0.44598413 0.5166819 0.57619226 0.5999402 0.59597373 0.56706697 0.526376 0.5922363 0.6239563 0.62150913 0.6814407 0.69395185 0.6746243 0.5848388 0.63623106 0.63158107 0.6703191 0.62179625 0.53568316 0.52701265 0.5368427 0.29629797 0.3660364 0.32245225 0.07952802 0.3347266 0.28783387 0.20283453 0.1367802 0.19381493 0.20711818 0.1358392 0.3256752 0.40662152 0.38060948 0.23371588 -0.12116864 0.16507795 0.18860184 0.16636622 0.26572043 0.31977308 0.14456591 -0.41171542 0.2533085 0.17655873 -0.22335885 -0.21358159 0.13529047 0.01428582 0.19899142 0.11393234 0.6001949 0.4514302 0.39209718 -0.21455634 0.5741977 0.5236841 0.42900243 0.36198866 -0.3450839 -0.28560397 0.53652024 0.24918053 0.49092233 0.426723 0.44402826 0.3434528 0.1886836 0.17619337 0.114032365 0.058858722 0.01718447 -0.16375375 0.12838632 0.45212924 0.45114082 -0.03268365 0.4740848 0.32871568 0.13998121 0.17991582 0.34277844 0.45793647 0.29069972 0.545148 0.53859365 0.44317728 0.5324614 0.5215475 0.2968666 0.45697242 0.4902095 0.48049366 0.47983685 0.4210779 0.31451237 0.23991996 0.28315046 0.3388986 0.42143977 0.28965107 0.3174794 0.48351574 0.3903423 0.5954542 0.5688812 0.5192621 0.626146 0.6406541 0.6250231 0.6729402 0.67616546 0.6405846 0.65240365 0.6799609 0.69105005 0.65375125 0.51217294 0.5924398 0.22603698 0.3932084 0.4554194 0.18322465 0.14264728 0.17174014 0.28612363 0.110026985 0.13369325 0.29867733 0.14567316 0.06798686 0.24042292 0.10313322 0.14308208 0.27606082 0.28337425 0.22722626 0.08390526 0.12188694 0.22718126 0.12363052 0.07896579 0.2815193 0.2279326 -0.02664923 0.005625885 0.64862967 0.6514938 0.5145229 0.35734528 0.020057749 -0.014167916 0.61318606 0.62519056 0.27507123 0.3011564 -0.2172615 -0.08918912 0.5880203 0.57956034 -0.10079269 0.5308785 0.46634287 -0.0131563805 0.446032 0.39997077 0.1631017 0.029241078 -0.0066765994 0.40820163 0.43763268 -0.05793537 -0.16265848 0.48229277 0.49597555 0.5229066 0.5233431 0.29821876 0.2580462 0.09000684 0.38098627 0.48858812 0.53715235 0.5428914 0.30504858 0.4783939 0.540294 0.4394951 0.3834222 0.4469877 -0.20474342 0.14973652 0.38532245 0.40473264 0.46333435 0.15439345 0.24311775 0.32363304 0.37350315 0.20349675 0.10778674 0.4929865 0.14212805 0.2797413 0.57517564 0.5467849 0.40742242 0.48359898 0.57604504 0.6044394 0.5992633 0.54776967 0.6443845 0.6336429 0.55899274 0.38612702 0.38303548 0.3716152 0.60395074 0.627277 0.33536008 0.3357183 0.5351013 0.25525993 0.23017403 0.2649926 0.18904227 0.17555542 0.20079914 0.1439971 0.09372285 0.16348812 0.22911799 0.19470954 0.22845033 0.27575165 -0.008718498 0.03071227 0.19453147 0.28465238 0.35027924 0.28411612 0.11039075 0.055633202 0.09496805 0.30798078 0.41796964 0.31748903 0.31660643 0.16136009 0.38834465 0.44248918 0.5269141 0.3290408 0.38524535 0.47506166 0.5248027 0.65586853 0.70078784 0.47670096 0.3055297 -0.0567086 0.5980768 0.6175071 -0.118756756 0.5612492 -0.12806895 0.5185075 -0.120759755 0.4886626 -0.14011797 0.45141986 0.15458125 0.2840006 -0.021250091 0.37744558 0.38730875 -0.20936415 0.49348056 0.48292506 0.52997786 0.5076598 0.018721402 0.1317031 0.5401564 0.54142976 0.021261059 0.23298329 0.41647285 0.5031861 0.32176116 0.0445719 0.19297092 0.15201949 0.27738425 0.37095082 0.3564297 0.04001134 0.08922463 0.2561646 0.39276934 0.123054266 0.19742933 0.51898146 0.29005748 0.4528026 0.5097673 0.55150896 0.5503308 0.52523446 0.53919804 0.36595783 0.4051975 0.40277046 0.40815794 0.42029867 0.44586122 0.41969037 0.33122617 0.37785405 0.50838846 0.43660817 0.37508535 0.2696552 0.36625525 0.50580645 0.48320153 0.12844665 0.13019942 0.34149963 0.17819147 0.46100268 0.23100813 0.5656633 0.47973248 0.34311372 0.044595238 0.05421442 0.2782906 0.29351997 0.34285715 -0.0912689 -0.19874965 -0.23706537 0.42763007 0.2039202 0.23308331 0.05114179 0.010376118 0.5354715 0.26500282 0.55629545 0.6205889 0.25416976 0.55946684 0.6167263 0.6116011 0.6250407 0.52101123 0.14762037 0.10261149 0.2968336 0.42430705 0.58156526 0.61140335 0.5366151 0.5570991 -0.1234289 0.14963941 0.5180092 0.48828351 -0.22726047 0.48713604 -0.24895678 0.48319143 0.45340198 0.10651901 0.22998491 0.24313796 0.37578195 0.28863245 0.29306027 0.2605952 0.052000094 -0.41525406 0.33387676 -0.23871459 0.42808732 0.41510624 0.29600006 0.014465563 0.5033197 0.4529183 0.4083205 0.022517517 0.08748582 0.46844885 0.52535325 0.5122863 0.56340635 0.4802543 -0.05826126 -0.17220117 0.4120538 0.47983795 0.5173245 0.5406776 0.13270664 0.26352602 0.26785904 0.4122212 0.28741467 0.20495719 0.116041556 0.33712423 0.52755195 0.44645113 0.24012083 0.23978058 0.17907661 0.49143425 0.4609191 0.4971497 0.5079579 0.51259685 0.41815913 0.4471036 0.47090185 0.36413723 0.42926708 0.46526638 0.47678912 0.12625843 0.15685883 0.36593473 0.42276514 0.5435384 0.5168974 0.4562344 0.40264288 0.33070505 0.25517482 0.20182467 0.541286 0.63270426 0.5571407 0.45616388 0.37057275 0.49345317 0.18456781 0.665007 0.6549573 0.53643596 0.41133165 0.32208186 0.35424754 0.24495578 0.2589519 0.63528043 0.61464083 0.34117144 0.26401412 0.22428013 0.17087942 0.3378102 0.5513506 0.4330432 0.2651337 0.07468062 0.48887926 0.17409787 0.56626403 0.6102074 0.62375474 0.61397827 0.13192421 0.6199776 0.60956156 0.47492176 0.20447749 0.6093832 0.6140694 0.49544907 0.4290425 -0.18451965 0.05777153 0.4786446 0.46126455 -0.17341128 -0.12780681 0.45100504 0.4391995 -0.24802259 0.43564495 0.22359787 0.3989155 0.358366 0.28469008 0.28699246 0.15850249 0.31435102 0.04247415 0.32740754 0.3619326 0.57203716 0.5361044 -0.3524208 0.21608222 0.32820362 0.41860858 0.4551311 0.44936824 0.6328479 0.57630557 0.64393276 0.620519 0.19119067 0.16289282 0.43144357 0.40752375 0.026264254 0.25000918 0.30362397 0.5365026 0.3942579 0.2810367 0.44234407 0.5656643 0.5894329 0.5857419 0.54308546 0.23203483 0.39608216 0.5839387 0.60284656 0.57421684 0.4799068 0.18309072 0.4186703 0.4242549 0.63258505 0.37490755 0.4050799 0.47018677 0.4655035 0.19117177 0.33379048 0.46370488 0.115879655 0.37336576 0.54548687 0.5022663 0.45248067 0.4160492 0.3163963 -0.072645344 0.5296799 0.49507117 0.4759988 0.55141234 0.101114295 0.260122 0.62172437 0.59523165 0.54817164 0.42904812 0.059003823 0.6417337 0.23751262 0.1602636 0.2848575 0.18193068 0.25992393 0.6154456 -0.13155101 0.33985308 0.42246535 0.5330178 0.4822505 0.6054107 0.60473573 0.602056 0.1271201 0.58252335 0.5838572 0.57422626 0.5709563 0.38417968 0.30454347 0.20080277 0.5333802 0.49979937 0.39227557 0.40661663 0.3937279 0.071450345 0.2515785 0.27061212 0.26663157 0.08513538 0.2717626 0.25735918 0.24529533 0.5915097 -0.21305642 0.2253219 0.27822748 0.6553238 -0.09313711 0.65960145 0.6432212 0.57940537 0.42831612 0.3576765 0.18840156 0.55211747 -0.055929106 0.13189313 0.4926715 0.52234185 0.6060278 0.5987687 0.53699017 0.06985143 0.6018997 0.61645836 0.37064302 0.6418603 0.68069375 0.6733993 0.6211627 0.3417511 0.17332815 0.17430425 0.32879028 0.3717351 0.42714992 0.41971016 0.44037026 0.45740074 0.050718933 0.47088492 0.47398502 0.45444292 0.40947106 0.37427503 0.31521797 -0.0467533 0.41837025 0.49278513 0.47820592 0.50173026 0.44437456 0.41797328 0.38452542 0.32100078 0.44896442 0.463292 0.23276702 -0.09822461 0.3923227 0.53328836 0.30988148 -0.08006292 0.59609306 0.26397648 0.54403806 0.38810694 0.42519656 0.38830602 0.49391314 0.25177273 0.1355901 0.5132471 0.581965 0.5694947 0.57755595 -0.07477033 0.5384335 0.5611998 -0.07808714 0.52423733 -0.018551461 0.3874212 0.18634653 0.12598386 0.30023098 0.10977967 0.30934194 0.13320896 0.24282321 0.25329652 0.11608052 0.23750426 0.05499457 0.21513416 0.21462134 0.18879479 0.21675146 0.21898893 0.5184529 -0.087365806 -0.10706621 0.11283897 0.23359588 0.63525504 -0.10489218 0.6282872 0.6007954 0.4760962 0.18883087 0.39191902 0.30580604 -0.033933368 -0.014413543 0.55683243 0.37552536 0.40894008 0.008736353 0.4302437 0.4968379 0.55697393 0.55922467 0.5476054 0.29498476 0.03569947 0.6129059 0.6363729 0.51167506 0.656381 0.68529594 0.6798162 0.59666395 0.21715516 0.2819689 0.34127563 0.2386593 0.2451626 0.39123967 0.40786934 0.47027472 0.20252505 0.4898175 0.54057634 0.16029815 0.07049038 0.54283965 0.45932654 0.43495825 0.4105135 0.3704817 0.36652082 0.3281915 0.31179065 0.29982203 0.49831104 0.45528448 0.45132753 0.39479917 0.37203825 0.30508053 0.20877591 0.14840998 0.44479626 0.5433476 0.4574949 0.16686782 -0.11308811 0.32713148 0.4380695 0.4668497 0.37211025 0.051721618 0.41593775 0.067951344 0.034316704 0.2846232 0.47140813 -0.23028502 -0.081194565 0.06592828 0.48982072 0.54430103 -0.1405212 -0.21359544 0.4863912 0.5201511 -0.118364096 0.263194 0.39053106 -0.032331232 -0.061966226 0.18031637 0.059616968 0.036937743 0.09745337 0.07224765 0.10797366 0.0826416 0.20134875 0.23196277 0.16650277 0.24515751 0.24808168 0.14701374 0.23391867 0.27060604 0.2797305 0.49142784 0.2803625 0.29834896 -0.12692574 0.09327918 0.2676028 0.31674746 0.37983474 0.31661317 0.5560044 0.40773118 0.0064493045 -0.08990932 0.18400584 0.3337605 0.3973137 0.449231 0.45878762 -0.013189681 0.43093464 0.4042002 0.48334694 0.23115698 0.24901177 0.32670373 0.34350067 0.44633108 0.36603993 0.40932506 0.100562274 0.059985604 0.38133872 0.438538 0.5336611 0.4059564 0.17974551 0.037383065 0.09663944 0.60361475 0.62759316 0.63516736 0.53252447 0.5163529 0.66070014 0.6686864 0.64433455 0.4889145 0.42787257 0.29338852 0.41822666 0.30994394 0.48689452 0.5538976 0.3832399 0.5975274 0.6298891 0.20712484 0.21154979 0.6825658 0.47451994 0.50366557 0.4956216 0.40378177 0.2554765 0.12412743 0.6971484 0.42888945 0.4493318 0.24295935 0.17022322 0.21909098 0.03606208 0.5385006 0.6251533 0.41218364 -0.5641983 0.31243235 0.39238447 0.1626496 0.2735861 0.3270054 -0.0035090446 -0.21181893 -0.32457352 -0.2217597 0.058728315 0.39387196 -0.25013268 0.03342485 -0.16931939 0.2963363 0.008562416 -0.01637844 0.13955803 0.0807625 0.12615976 0.13050048 0.1509342 0.14731918 0.19960792 0.17891414 0.21140902 0.21361059 0.17718592 0.2773143 0.16373587 0.30995965 0.18219016 0.3189943 0.32211274 0.35041583 -0.034022503 0.19143218 0.44198188 0.15968427 0.22562507 0.4633742 0.49530143 0.5140568 0.48480546 0.03819044 0.0015202314 0.074425854 0.20886597 0.48981455 0.55044734 0.30561185 0.36325216 0.025113981 0.11398466 0.10777897 0.037838407 0.51151466 0.51167214 0.33930722 0.56222546 0.57314897 0.52653295 0.639593 0.53446716 0.47610182 0.5884939 0.58990884 0.5035186 0.3613716 0.48699743 0.5268412 0.18185441 0.37935382 0.5665899 0.61976224 0.3683694 0.6603466 0.6921541 0.5452194 0.5376924 0.50896245 0.23598677 0.7877123 0.5151777 0.53282577 0.46880418 0.39764613 0.11633621 0.7882515 0.40884668 0.43039292 0.29134136 0.17499316 0.004971653 -0.11450598 0.040079728 0.12567997 0.13514028 0.13362326 -0.014931276 0.003065154 0.57146597 0.66898715 0.35542518 0.060053557 0.0007982254 -0.0796249 -0.0049701612 -0.21859151 0.23963542 0.42971635 0.45786074 0.30983305 0.0063633323 -0.101929635 -0.26239163 -0.0817949 0.2115546 0.398755 0.2224181 -0.51679003 0.0041068047 0.48759615 0.3237116 -0.17578916 -0.084025264 0.501994 0.01791285 -0.037150815 -0.012217414 0.26571158 0.08688342 0.14472258 0.09865765 0.1898647 0.07092137 0.13882828 0.14179066 0.1746564 0.14673008 0.23304938 0.32685947 0.35689762 0.29767975 0.3010435 0.38028696 0.3089664 0.043888118 0.43149 0.11210502 0.0941468 -0.1238707 0.09877015 0.53601265 0.4923551 0.16471148 0.045080233 -0.047778953 0.5914247 0.62726146 0.59753764 0.56370246 0.15713419 -0.0081589 0.15706773 0.1335446 0.28435737 0.12975982 0.698851 0.67408895 0.6462966 0.68537414 0.68801 0.62571883 0.3074962 0.48519063 0.60818875 0.5410423 0.64421445 0.64946127 0.7101472 0.74269474 0.55065936 0.5442871 0.5246397 0.30556548 0.7715966 0.82398844 0.50445884 0.5415734 0.4904747 0.43869388 0.18968134 0.8380143 0.38597983 0.43465713 0.17366329 0.005385354 -0.03509786 0.06959425 0.4995426 0.6789763 0.7473465 0.33163568 -0.097523555 -0.095128044 -0.50898767 -0.1166907 -0.19978116 0.14253509 0.4446333 0.18235978 0.41091132 0.27418917 0.022409884 0.30211958 -0.088100344 0.72290313 0.42815647 0.10596264 0.73269844 0.035580266 0.103716835 -0.12916292 0.72222924 0.6093286 0.6276225 0.42222723 0.24044907 -0.18917641 0.36836356 -0.014610913 0.3277015 0.14738607 0.23151766 0.35057873 0.2115346 0.062492844 0.1427382 0.20267613 0.25291407 0.29477265 0.30533022 0.33315355 0.3001718 0.29608235 0.21406576 0.43306696 0.38513106 0.10246417 -0.044104777 0.5482867 0.49950576 0.24007973 0.14692727 0.59293234 0.64032936 0.62614393 0.5838925 0.20986453 0.13974014 0.0476524 0.17249644 0.2670142 0.21606778 0.32766104 0.3616526 0.36214533 0.72103995 0.7124473 0.684165 0.599566 0.56523395 0.71559 0.7110368 0.5768377 0.69784117 0.55951375 0.54708713 0.07696326 0.43734705 0.73105025 0.8016449 0.48592508 0.540128 0.5509125 0.51680094 0.45256218 0.63736165 0.79768443 0.35747457 0.42097655 0.09589449 0.07101923 0.24459192 0.11950216 -0.11093812 0.04102811 0.5005405 0.6733273 0.29292274 -0.020393819 -0.13709375 0.20857733 -0.10455374 0.2167583 -0.07974109 0.49909347 0.52995354 0.42854753 0.445728 0.62865776 0.5870371 0.72656846 0.70360976 0.09979053 0.75104237 0.74772197 0.113738224 0.7706069 0.80376136 0.08903753 0.113961905 0.7778313 0.24287586 0.3185218 0.3784312 0.45365268 0.33738333 0.08034636 0.3775605 0.46521777 0.37395942 0.5560261 0.4845052 0.3355589 0.3855353 0.6297337 0.5542778 0.28078842 0.6383324 0.54179794 0.13420567 0.6655004 0.5947486 0.39468879 0.16757885 0.5791059 0.28400743 0.07774674 0.29423565 0.28876457 0.2831963 0.24971473 0.1272082 0.094824806 0.4347927 0.17672189 0.1358084 0.30832055 0.44213766 0.5176258 0.5576273 0.5075846 0.22928679 0.08016734 0.17509998 0.57689404 0.5955157 0.60641265 0.59249806 0.23786995 0.21180543 0.40561682 0.30702057 0.28776968 0.35930672 0.42564142 0.45964497 0.432827 0.7033663 0.70066416 0.6678364 0.65248 0.64365137 0.69683146 0.6671479 0.6687054 0.6670721 0.632648 0.684111 0.5590745 0.5735645 0.46638912 0.24078268 0.48278114 0.5133364 0.5453676 0.44949818 0.39358357 0.16392498 0.44150323 0.48430088 0.23771974 0.114892446 0.07726071 -0.029788584 0.32692736 0.35857216 0.34520912 0.06250046 0.35583287 0.37752718 0.03695326 -0.06960083 0.18222177 0.49854332 0.5467911 0.22607273 0.16954231 0.54219145 0.5148807 0.49625385 0.3964476 0.4355552 0.62426025 0.5762962 0.15956026 0.72259116 0.6935143 0.14730674 0.1661137 0.7480973 0.16517465 0.77614856 0.12822202 0.802513 0.09390259 0.20104238 0.28166288 0.48571813 -0.11847207 0.34271234 0.5249976 0.40219927 0