# vtk DataFile Version 2.0
Really cool data
ASCII
DATASET POLYDATA
POINTS 7899 float
-2.6318786 48.824337 34.73086
-2.6418679 48.78483 35.054386
-2.6040199 49.55257 34.572624
-2.6284761 49.36677 35.011158
-2.5529945 49.810154 34.655422
-1.7114575 41.30634 38.829887
-1.7370486 41.318848 39.207382
-1.8013823 41.85153 38.042786
-1.9228923 41.675774 38.662247
-1.9857824 41.721813 39.32068
-1.8958653 41.949417 39.897327
-1.6021917 42.521816 37.158478
-1.8362714 42.570576 37.63697
-2.1786327 42.35026 38.66564
-2.223043 42.456017 39.2771
-1.8935037 42.509674 40.14482
-1.623932 43.435246 37.000797
-1.8368498 43.404625 37.483772
-2.045422 43.233364 38.441498
-2.1724417 43.213184 39.49787
-1.9446411 43.28023 40.163403
-1.6422164 43.2644 40.71015
-1.8441603 44.07806 38.03359
-1.7695898 44.053295 38.312523
-1.9424098 44.540295 39.40338
-1.7535534 44.3258 40.46713
-1.794389 44.85074 38.95891
-1.7429045 45.12685 40.108883
-1.6918526 47.209858 34.581036
-1.6565752 47.00032 35.320038
-2.1313922 47.903217 34.531067
-1.8741889 47.33271 35.465862
-1.7407589 47.438354 35.9972
-1.8681264 49.08902 33.36795
-2.1790314 48.688847 33.907696
-2.4751275 48.46697 34.60023
-2.471553 48.58317 35.31547
-2.236336 48.77842 35.83136
-1.8509697 49.45201 33.34862
-2.2727897 49.392075 33.817066
-2.5429215 49.766476 34.48019
-2.4577131 49.329952 35.435898
-2.0689812 49.480587 35.82395
-1.9862683 50.2865 33.752117
-2.2605872 50.232216 34.654305
-2.0639443 50.253345 35.201717
-1.801839 50.825764 33.959953
-1.8430414 50.77598 34.55867
-0.8161908 41.16988 37.54875
-1.3496226 41.16178 38.643497
-1.276186 41.128967 39.409584
-1.0906872 41.215904 39.899536
-0.9860035 41.847424 36.78551
-1.3765972 41.652206 37.536804
-1.6041527 41.396107 38.341354
-1.6543055 41.420616 39.526638
-1.340147 41.68258 40.22316
-1.1504724 42.501923 36.58497
-1.5725219 42.404568 40.457474
-1.0160933 42.792313 41.0802
-1.2724146 43.35606 36.507057
-1.2157271 43.77055 41.308685
-1.1136553 44.16877 36.605278
-1.3275243 44.666405 37.52038
-1.2791018 44.286892 41.242912
-0.7412726 45.822365 35.083984
-1.159087 45.340054 36.910347
-1.0116612 45.275417 37.76279
-1.4247226 45.326237 40.698704
-1.0365539 45.41339 41.358345
-0.9043654 46.80549 34.155464
-1.4725032 46.88839 34.71603
-1.5626247 46.84506 35.157745
-1.0428002 46.47285 36.44115
-1.0058815 46.933422 38.687336
-1.2510718 46.86638 39.396774
-1.4620252 46.358837 40.715088
-1.302055 46.440296 41.194736
-0.76443017 46.58524 42.142326
-0.86493963 47.929657 33.288532
-1.3044173 47.932926 33.598534
-0.82225966 47.798447 38.714153
-1.0941191 47.813328 39.191933
-1.3449979 47.242256 40.482067
-1.1149676 47.3518 41.430454
-0.8700069 47.282753 41.960575
-1.2367314 48.643635 33.214993
-1.6277436 48.56649 33.435734
-1.2031373 48.298706 39.973568
-0.98610723 48.5421 40.556458
-0.85479224 48.123455 41.355053
-1.377198 49.532246 33.081135
-1.6754761 49.422977 36.23114
-0.8803157 49.18356 39.802383
-0.8143232 49.05557 40.469177
-0.7437066 48.832485 40.887806
-1.2633404 50.442184 33.125366
-1.5582906 50.639633 33.36303
-1.4674256 50.49517 35.4372
-1.0942154 50.577374 35.72302
-0.9170886 51.118237 33.207138
-1.2709682 51.19339 33.65119
-1.3832977 51.251644 34.346085
-1.2945877 51.001217 35.011
-0.9157913 51.532898 33.9111
-0.3254009 41.230682 37.014507
-0.41369957 41.0508 37.482803
-0.40373108 40.81193 39.314415
-0.47102538 41.124138 40.06186
-0.39097476 41.86152 36.319218
-0.5465252 41.594437 36.593746
-0.45878372 42.06051 40.8545
-0.52870905 43.040173 35.879005
-0.42994446 42.334755 41.06486
-0.41776788 43.125294 41.59012
0.3469494 42.75252 45.964855
0.20370552 42.800026 46.57729
0.2837934 42.820194 47.186554
0.08254652 43.18597 35.75095
-0.25265396 43.75016 41.85617
0.32479304 43.538673 45.90877
0.18687728 43.41385 46.6069
0.25683403 43.342693 47.199047
-0.2130996 44.19389 35.753117
-0.2647622 44.715225 41.94754
0.33906037 43.953213 46.56006
0.39653265 43.92413 47.16739
0.34538943 44.922733 52.81421
0.33913672 44.86065 53.592068
0.39910722 44.911507 53.981026
-0.14693677 45.834755 34.156063
-0.1268503 45.596386 34.41721
-0.24518964 45.730434 42.32976
-0.051671118 45.95805 42.62435
0.3612031 45.702217 52.240753
0.2921673 45.5184 52.601246
0.22717175 45.551613 53.3694
0.35918206 45.4823 53.9182
-0.040267766 47.04203 33.39397
-0.26871818 46.56814 33.957336
-0.4421817 46.91221 42.42509
0.11541188 46.911674 42.73768
0.34453487 46.0377 52.87951
0.346077 46.08014 53.288197
0.42251104 46.024708 53.963177
-0.37591437 47.87089 33.164845
-0.40508005 47.42898 42.363556
-0.031227201 47.367 42.600075
-0.41999424 48.867508 32.85337
-0.27425113 48.56881 41.4764
-0.20890239 48.06386 42.124332
-0.50205046 49.61473 32.80723
-0.44237077 49.04111 36.918713
-0.08630958 49.308548 38.589745
-0.49979162 49.301804 40.610577
-0.32023573 49.068188 41.02575
-0.4937048 50.48065 32.88776
-0.844758 50.09945 36.00386
-0.14442416 49.811718 39.33159
-0.17003046 49.64483 40.4414
-0.49659604 51.12091 33.195835
-0.58242613 51.391872 33.495472
-0.36033055 51.474876 34.59169
-0.6347904 51.220997 34.980213
-0.13661739 50.663452 35.69153
-0.65416646 51.557625 33.90681
-0.63343906 51.539906 34.223595
0.12705846 41.13367 36.966347
0.5258002 40.978058 37.345833
0.07065443 40.75839 38.42934
0.7264374 40.98077 39.49552
1.4718263 40.270977 47.88186
0.76142555 41.80065 36.247242
0.6431535 41.571857 36.417255
0.41803372 42.019363 40.875053
0.59662265 42.199203 46.08859
0.7441566 41.858616 46.749172
0.7824173 41.92553 47.18489
0.26257557 42.507275 35.982697
0.11414109 42.378044 41.164703
0.582776 42.634693 45.60819
0.4555265 42.261745 46.51607
0.5193137 42.51535 47.380405
0.89205956 42.702415 48.04127
1.2190938 43.368114 54.038578
0.59910005 43.753582 35.031475
0.6176347 43.575584 35.47561
0.9858277 43.768177 44.91994
0.42209396 43.28088 47.689404
0.6305898 43.279465 47.932198
1.3495576 43.818947 48.81091
0.7779398 44.238625 52.806488
0.9553266 43.78925 53.716187
1.0457572 43.72787 54.36401
1.1786082 43.986206 54.988697
0.8810635 44.766285 34.12088
0.47588316 44.647335 42.490025
1.1613402 44.78704 42.966106
0.7485719 44.354504 45.739727
0.68851316 44.44477 46.668068
0.67634916 44.244926 47.373657
1.0784048 44.31468 47.937458
0.77731645 44.882786 52.11691
0.55710936 44.79887 52.518806
0.54149985 44.40738 53.495525
0.5962597 44.60986 54.376022
1.0098133 44.500885 55.109535
0.4547336 45.81962 33.802166
1.1604998 45.45025 43.35096
1.3080524 44.993202 46.310505
0.5611493 45.31857 52.129486
0.43465048 45.759167 52.33123
0.5806323 45.658104 54.513466
0.9657187 45.230614 55.19635
1.3315423 45.547253 55.816883
0.72014064 46.705906 33.338608
0.8642404 46.163044 52.171818
0.5181563 46.1789 52.574833
0.57145023 46.433628 53.42249
0.7319721 46.380375 54.373608
1.0265906 46.394234 55.08091
1.3755455 46.284595 56.019802
0.2939398 47.21752 33.292152
0.66151553 47.336735 42.848145
0.8874411 46.680016 52.702248
0.9723865 46.95591 53.52422
1.0719249 47.00207 54.26715
1.3166668 46.976757 55.050266
0.57050705 48.536674 32.869484
0.5376362 48.16031 42.358215
0.40551588 47.78526 42.582447
0.6664646 48.97289 32.786976
0.3446864 49.333946 37.60737
0.3054031 49.270126 41.193436
0.9957625 48.708977 41.837246
0.32205632 50.54357 33.158524
0.3118993 50.033394 36.295643
0.16644278 50.076103 39.673832
0.122970074 49.687794 40.670044
-0.057770863 51.10487 33.26244
-0.027773023 51.261703 33.581345
-0.03315611 51.4347 34.302338
0.41489822 50.624344 35.552788
-0.1117528 51.57587 34.12208
2.3997104 38.245144 46.95807
2.3627071 38.614796 46.158157
2.2117805 38.56428 46.644066
1.9345286 38.740074 47.645096
1.9788673 38.788414 48.354866
2.1497667 38.926735 48.872154
2.0508657 39.708633 45.9277
1.7543645 39.660404 46.627
1.6063676 39.574306 47.458923
1.7219862 39.41608 48.351894
1.9998479 39.468624 48.95228
1.2785542 41.293762 37.306164
1.2826097 41.200726 38.56164
1.2429341 41.251602 39.45958
0.9111012 41.081577 39.829395
1.7868907 40.593224 45.813225
1.5585301 40.247402 47.643192
2.082471 40.45621 48.93034
2.2164211 42.265312 33.63554
1.8896112 42.323967 35.0734
1.1799916 41.402905 39.77965
1.3193524 41.629192 40.09486
1.6696818 41.85502 45.216957
1.6406158 41.315407 48.310745
2.1846108 42.73575 33.01403
1.8698978 42.622658 34.39712
1.1021031 42.70617 41.18444
1.9326364 42.621967 44.839798
2.1624098 42.401527 49.428566
2.333236 43.12353 49.99264
1.6635435 43.28817 53.824753
1.5904286 43.280704 54.31672
2.0797117 43.551754 32.953583
1.9137653 43.596397 33.670483
1.8272964 43.624676 42.047188
1.8845172 43.98722 43.029697
1.7423478 43.655724 49.359947
1.5502338 43.875927 52.705208
1.4854708 43.426575 54.62281
1.5122161 43.75835 55.099766
2.0012863 44.15711 55.852993
2.0845177 44.26926 32.893463
1.5987356 44.18004 44.48002
2.1077409 44.635353 51.513824
1.4229738 44.32117 55.45357
1.9070814 44.835674 56.260986
1.270414 45.804417 33.40689
1.672652 45.18311 33.540565
2.0474992 45.280388 44.62315
1.5822818 45.18309 46.066296
1.645604 45.262764 47.381283
1.7402866 45.019497 48.17449
1.1497856 45.486835 51.786076
1.6710197 45.516895 56.357635
2.0062017 45.668922 56.904846
1.6895479 46.11434 33.437527
2.1658435 46.52185 44.313004
2.3131247 45.798717 47.848072
1.3511168 46.306366 52.07518
1.6612583 46.17185 56.39891
1.9289432 46.331738 56.898327
1.9935851 47.093212 33.261246
1.5814703 47.551277 53.64342
1.4477237 47.616566 54.458717
1.6530279 47.52605 55.043705
1.731244 47.180252 55.876163
2.413513 47.453014 56.93276
1.0369477 48.334637 32.80943
1.184646 48.302696 42.32714
1.9160756 47.86324 53.76068
1.7020804 47.857838 54.45054
2.0014956 47.785217 55.31185
1.6443791 49.591896 33.41976
1.924137 49.50912 41.27755
1.8508533 48.859646 41.707516
2.3598847 50.150944 58.666843
0.8882576 50.074448 33.25337
1.4965403 49.98714 33.73573
1.7450867 50.42057 35.289154
1.6444852 50.002018 40.420948
1.9752957 50.849926 58.307972
2.2375133 50.639187 59.639904
2.364359 50.847145 60.383778
0.89862627 50.731678 33.699417
2.265612 51.422447 36.99386
2.225588 51.477913 37.997864
1.9270345 51.010292 38.779236
2.0836523 51.498184 39.53268
[...]
POINT_DATA 7899
SCALARS features_00 float 1
LOOKUP_TABLE default
0.7380961 0.7254294 0.81809247 0.77773273 0.82795936 0.6459738 0.6506227 0.62958825 0.63770735 0.6444418 0.6470584 0.58061206 0.5950942 0.63228124 0.6409259 0.6261034 0.46757063 0.47780454 0.55547005 0.59978795 0.5613961 0.5290973 0.3737182 0.38653183 0.41016972 0.44017243 0.3081296 0.36502838 0.48826844 0.42335832 0.61504745 0.47288865 0.42243102 0.75573325 0.730267 0.69683826 0.69131804 0.68262357 0.82071054 0.834943 0.83917797 0.74769086 0.7290878 0.92178196 0.85289645 0.7956817 0.9152044 0.87865126 0.61545324 0.6370773 0.6453466 0.64763963 0.5800658 0.6205734 0.63839126 0.6516601 0.64256394 0.5491837 0.6175818 0.54400337 0.47717422 0.4347777 0.36944288 0.27080438 0.392043 0.24281515 0.10516378 0.14026013 0.36197114 0.35440204 0.37502253 0.42765212 0.40507302 0.12559325 0.19760922 0.31029242 0.37684357 0.40342146 0.4267649 0.46923232 0.51718205 0.36415982 0.42212647 0.4463529 0.45740682 0.4525091 0.6039858 0.6391995 0.48446187 0.47145405 0.45841154 0.790754 0.6664648 0.46530765 0.45207757 0.44767207 0.9111167 0.92488444 0.7491168 0.67103326 0.8513077 0.87504065 0.85991526 0.80268717 0.83958864 0.583704 0.6055112 0.70548975 0.68812025 0.5380978 0.5637937 0.5965606 0.4394077 0.5608736 0.451025 0.5569408 0.54517734 0.5278943 0.35460058 0.34663486 0.5700368 0.56176883 0.5463779 0.22878388 0.2677454 0.55603415 0.5389463 0.6933883 0.6994875 0.6854284 0.19485977 0.16465238 0.30966198 0.30963472 0.67680794 0.6835948 0.67813617 0.6621965 0.2911185 0.2790824 0.4376007 0.40842307 0.6677573 0.65776575 0.6291232 0.42122054 0.44732562 0.43760818 0.563252 0.41742352 0.4306239 0.74778634 0.21425587 0.32706133 0.42709973 0.4093676 0.8332125 0.55757105 0.3612504 0.3944208 0.81508774 0.82600355 0.7663908 0.7542391 0.59083927 0.82941854 0.8152106 0.5643509 0.5585005 0.68011653 0.511117 0.4156473 0.45404857 0.4959362 0.52513856 0.5062183 0.4426872 0.42263094 0.4299084 0.49816477 0.5565947 0.505453 0.48410678 0.41495085 0.6434017 0.05698544 0.1643467 0.5213803 0.5182812 0.49275696 0.42905366 0.6938223 0.6910993 0.64580065 0.5868648 0.013518667 0.17632541 0.17774773 0.50486666 0.5054258 0.5024462 0.45008892 0.6617193 0.68494725 0.71266836 0.663521 0.5763981 0.13820133 0.13404648 0.3808568 0.6712608 0.6756166 0.6053164 0.54829323 0.47805685 0.19722596 0.63902104 0.65763426 0.6252636 0.56887156 0.5081814 0.44734886 0.28261775 0.35968006 0.6130463 0.5751048 0.5306155 0.46896034 0.44982052 0.37175423 0.4013132 0.5443842 -0.016327327 0.33687147 0.2712252 0.7232061 0.34268472 0.32508188 0.3575798 0.7684876 0.76642 0.7455809 0.54844165 0.76782984 0.49217796 0.4267999 0.47393513 0.52224505 0.50349367 0.472675 0.37871122 0.46248683 0.49428695 0.48441565 0.4361184 0.4503911 0.39074832 0.37016827 0.45981014 0.3376944 0.42620263 0.31121388 0.5037359 0.28240272 0.39054376 0.37147975 0.34286538 0.24062464 0.5128918 0.4083013 0.25485995 0.3113163 0.08706674 0.08165053 0.6038428 0.5804441 0.4286505 0.33278278 -0.12373166 -0.07876447 0.35812986 0.63877606 0.57258 0.5448288 0.45300525 0.30371514 0.3409633 0.6123873 0.52912366 0.43235075 0.09301911 0.06816803 0.08358965 0.2969517 0.31393862 0.30825123 0.6346198 0.42833942 0.3780278 0.08636815 -0.101310745 0.16334616 0.6119861 0.41735694 0.3795245 0.16168003 0.51373506 0.48247185 0.4399573 0.40058166 0.32882512 0.38316065 0.23425147 0.45268276 0.4608552 0.40570784 0.49258095 0.07085675 0.077163085 0.47595578 0.632566 0.47398582 0.3221241 0.1405328 0.58615035 0.46556225 0.44750798 0.6139329 0.3755101 0.40446234 0.3279314 0.35700506 0.31569695 0.54439235 0.5786018 0.55654836 0.48378253 0.44648498 0.41825324 0.3957028 0.49977002 0.5422256 0.51983094 0.47953594 0.45741987 0.47284973 0.4751472 0.46742433 0.48973686 0.4948426 0.3955992 0.46645015 0.50704366 0.49678162 0.4386508 0.3387425 0.45123714 0.49314803 0.44869816 0.31368393 0.38341677 0.16737391 0.5269356 0.50631523 0.440149 0.25142658 0.09098972 0.20603347 0.24797976 0.21279338 -0.26907784 0.044634223 -0.058216836 0.5459723 0.539548 -0.27454767 -0.2840459 0.0492628 -0.061896168 0.52312064 0.40981072 0.5167987 0.48235735 -0.19356629 0.42336175 0.38830024 0.3754141 0.44214103 0.39885625 0.32485342 0.14846888 0.14640501 0.1700129 0.06936397 0.30953896 0.24877691 0.114337586 0.23861402 0.18662854 0.14034642 -0.016077463 0.022505056 0.25395274 0.29134804 0.3458016 0.33238193 0.2478072 0.1842983 0.28388977 -0.072306074 -0.019124627 0.27457044 0.3450163 0.34285286 0.35053772 0.3156466 0.38759756 0.34439233 0.27027532 0.13972943 -0.020866456 -0.09350383 0.27522296 0.30271834 0.14051154 0.09444758 0.46730393 0.46138448 0.44295773 0.40487483 0.35186532 0.27512056 0.3118776 0.25161177 0.44661182 0.37929606 0.32966796 0.38019663 0.41157788 0.41472965 0.40724686 0.37307394 0.46562082 0.4668219 0.41649574 0.4076959 0.4039582 0.41401613 0.39302012 0.4004621 0.32454082 0.30970192 0.35516065 0.338417 0.38032925 0.28244132 0.5135054 0.505382 0.55917823 0.3467887 0.3755865 0.33058196 0.28604516 0.41756213 0.45084158 0.4860831 0.4538675 0.58750254 0.3662761 0.39897743 0.4237105 0.46067792 0.3167256 0.23002471 0.39461508 0.4119112 0.5156608 0.5304674 0.5691285 0.43917495 0.40925682 0.31726512 0.19215517 0.24570788 0.4082733 0.46873793 0.4080586 0.47346753 0.28883272 0.1367083 0.20766862 0.16956396 0.32513443 -0.1814976 0.0594728 -0.083805405 0.14873862 0.24845545 0.52519757 0.5260513 0.4895075 0.28656396 0.22743623 -0.05986925 0.07340549 -0.27550012 -0.2718736 -0.28779775 -0.12019235 -0.1984533 -0.19065203 0.5502 0.5417226 -0.24047475 -0.21765342 -0.19459997 0.27942306 -0.12491464 0.5080499 0.51427436 0.21557456 0.19849685 0.44744304 0.45001626 0.24705136 0.34035504 0.5550852 0.174095 0.17387171 0.27149048 0.16746502 0.1345176 0.20864761 0.104369074 0.14387333 0.29713798 -0.022109201 0.2013664 0.3499073 0.3806501 0.38368055 0.36696804 0.15227728 0.02642225 0.20289348 0.041426837 0.3948925 0.39167145 -0.042612046 0.03138219 0.16237974 0.098799266 0.10157217 0.30275434 0.531368 0.5563117 0.040116854 0.20588747 0.2419074 0.15247616 0.44338796 0.48485798 0.5310311 0.3049512 0.35664058 0.34219027 0.27377456 0.31006044 0.20900404 0.38993037 0.40468997 0.3941136 0.38982108 0.42298946 0.41297132 0.29568213 0.40694967 0.34489834 0.30657673 0.580937 0.62470603 0.42149287 0.5345386 0.6098285 0.6598635 0.7309196 0.47734475 0.5431814 0.627603 0.67360413 0.9092754 0.89929533 0.86865586 0.8813822 0.8683542 0.77721953 0.78271604 0.7616097 0.68845713 0.6299001 0.57065123 0.57015216 0.56192 0.6187063 0.63158333 0.5641054 0.5606957 0.63678294 0.6565543 0.5283506 0.44771522 0.52943087 0.5675751 0.479348 0.24529979 0.2904963 0.31943446 0.37711832 0.3391042 0.38752735 0.17396778 0.26203966 0.31139308 0.3025475 0.14830728 0.0054973336 0.17382407 0.07431102 0.6911957 0.7666279 0.8006232 0.16657744 0.19172522 0.2257793 0.31523666 0.14488794 0.02808526 0.114489734 0.38849553 0.40649778 0.38695914 0.3512978 0.5630985 0.62337047 0.63020337 0.66601 0.671247 0.21757999 0.31897122 0.10812724 0.17948705 0.3188883 0.49580938 0.5058274 0.5629905 0.59828335 0.2656817 0.34165618 -0.024659812 0.06091778 0.25532764 0.36151937 0.3747203 0.49299812 0.52060074 0.18830967 0.29636586 0.05072021 0.043813698 0.054625377 0.06139745 0.22776979 0.27409965 0.34048283 0.39437774 0.37601775 -0.16717905 -0.10054864 -0.012071363 0.15230213 0.23949774 0.29800668 0.4511304 0.463894 0.22531927 -0.312259 -0.4066081 -0.52570575 -0.47865266 -0.13849545 0.09646673 0.12812647 0.08782463 0.52242386 0.51680464 -0.47644997 -0.1518171 0.49426073 0.03002056 0.42714834 0.12077214 0.22843593 0.29313135 0.21211386 0.16972354 0.14095768 0.27807528 0.0949371 0.33928102 0.315194 0.03207598 -0.048545726 -0.06879839 0.034971118 -0.058609307 0.120500654 0.2286789 0.39201808 0.37234834 0.3628349 0.002408415 -0.06313706 -0.09340738 0.36763883 0.5204072 0.55911624 0.57614255 0.41716093 0.34482723 0.27857462 0.14027949 0.15080354 -0.16731256 -0.26691723 0.56816137 0.5844525 0.44770736 0.29675665 0.15015137 0.14201012 0.19522235 0.19339076 0.039159916 0.5569997 0.5735725 0.33507198 0.28986102 0.20631227 0.24423908 0.34319693 0.49076414 0.52793574 0.5702985 0.36962253 0.35096344 0.25490466 0.23089865 0.40520746 0.6196889 0.67275834 0.6674851 0.6797515 0.33465534 0.33134595 0.6933453 0.73924387 0.69917315 0.7139691 0.70546526 0.6879988 0.29770133 0.33009046 0.76675785 0.7760149 0.70233095 0.707656 0.7032005 0.67033446 0.42222705 0.5469272 0.6119968 0.7403749 0.7873447 0.68400085 0.6829765 0.6703154 0.89730036 0.89652014 0.867146 0.8396008 0.880687 0.90085715 0.82943225 0.7875726 0.8084925 0.7311444 0.67000425 0.68556154 0.68501663 0.6153759 0.55610895 0.49154732 0.5364484 0.51595604 0.4281959 0.49492797 0.37792432 0.28127888 0.39135474 0.3140233 0.2505599 0.47332728 0.337055 0.6887355 0.67325085 0.6363482 0.41603678 0.49060407 0.45977503 0.7110754 0.6969448 0.6672169 0.35622236 0.44837913 0.2047365 0.09615059 0.251527 0.24543282 0.27542073 0.7175376 0.7041904 0.6788599 0.39720392 0.21224938 0.29030195 0.33107474 0.3247085 0.31304213 0.29173037 -0.04384711 0.12921421 0.3157937 0.7231633 0.8289703 0.9078692 -0.104120575 0.010994583 -0.07783638 0.080310576 0.24550956 -0.024457783 0.5644871 0.66577625 0.86100745 0.8045554 0.040306382 0.07109305 0.071333915 0.26436338 0.27500695 0.54676396 0.691358 0.17194945 0.17065294 0.1869447 0.46659228 0.6211295 0.17358688 0.17725375 0.3777187 0.47217894 0.14342459 0.107364096 0.36842704 0.041352578 -0.071511924 0.094328426 0.35617244 0.34856167 -0.0025196373 0.40071374 0.40448081 -0.18906072 0.06416884 0.19154233 0.41456908 -0.18332666 0.070670895 0.2600828 0.37736017 0.17723402 0.23880887 0.2216158 0.30219913 0.33764833 0.19600138 0.17838977 0.16360883 0.2838548 0.05436653 0.31935 0.10131647 0.005565325 -0.040826328 0.24526155 0.49973685 0.518402 0.37816635 0.38558054 0.1157909 0.29993555 0.30557948 0.15488738 0.06261143 0.02741123 0.06554823 0.5512831 0.57620996 0.4889454 0.18665284 0.12814786 0.028659523 -0.020856705 -0.19142944 0.6055937 0.61077094 0.6037792 0.5555614 0.24602285 -0.09033395 -0.013444431 0.61347 0.62773645 0.66051 0.61786467 0.5202727 0.33672932 0.3122372 0.32724774 0.056488298 0.5603533 0.6052096 0.61502606 0.18746674 0.28474277 0.35211998 0.08071324 0.4967557 0.5774984 0.5043097 0.5551253 0.17239624 0.6514912 0.6443253 0.61123693 0.6075836 0.29404557 0.7492827 0.6786742 0.68100923 0.58574444 0.28632036 0.79250944 0.78636146 0.6978408 0.62795734 0.4388003 0.49316365 0.7139999 0.7865832 0.70152557 0.6841233 0.6798857 0.6801256 0.6698398 0.46341485 0.50771487 0.5609041 0.6427306 0.73674405 0.7371217 0.7261992 0.78621906 0.78787315 0.7834498 0.83504456 0.8350047 0.8444103 0.8493172 0.83814794 0.80078304 0.75125635 0.8240615 0.74849 0.68275607 0.58808464 0.5664918 0.4840805 0.472717 0.38606384 0.38738513 0.27194357 0.24771193 0.20450464 0.23199567 0.52025306 0.56375796 0.4582361 0.13700454 0.25004578 0.18174738 0.118828446 0.29869652 0.5729119 0.4887082 0.5070388 0.58321 0.6066896 0.23704338 0.2769717 0.33741617 0.25794324 0.20422713 0.03557511 -0.024640836 -0.016109034 0.07780036 0.052693725 0.14757891 0.30353874 0.68552977 0.6687549 0.5995283 0.5774654 0.5233011 0.5415596 0.5634146 0.481346 0.31283826 0.0249461 0.080605365 0.049422227 -0.058785494 0.054948665 0.7186997 0.71893483 0.62055737 0.5022322 0.44467264 0.33480188 0.21973577 0.19120371 0.70580065 0.71959543 0.69732314 0.64454514 0.5434053 0.2139737 0.24300468 0.25637996 0.115982845 0.6899904 0.694783 0.6746029 0.63299733 0.027676128 0.07900292 0.692618 0.8500438 0.9278207 -0.037827633 -0.08127083 0.44664383 0.57837534 0.7891262 0.6741984 0.149652 0.08154428 -0.051667176 0.010425266 0.3643765 0.6348245 0.6881125 0.18101361 0.17265287 0.5227914 0.56641805 0.16671251 0.18003646 0.41818956 0.13676703 0.17863858 0.30217582 0.12319511 -0.052949622 0.27120516 -0.22684935 -0.21631974 -0.0015618093 0.09803948 0.36972842 0.26234338 -0.21515302 0.13054562 0.1918045 0.32227302 0.24005115 0.32630882 0.22079754 0.26220298 0.21402128 0.16066778 0.27888787 0.11659404 -0.034056365 0.31505668 0.18559483 0.3894605 0.4748041 0.48762044 0.3599031 0.023685649 0.008645788 0.10928182 0.09353295 0.019287303 0.53547084 0.52845615 0.55050313 0.19834542 -0.01622118 0.01798398 0.036970474 -0.07777192 -0.0695201 -0.15727106 0.5870542 0.64858377 0.6590183 0.28497136 0.6239362 0.6768114 0.6828374 0.24496673 0.38218182 0.32649165 -0.314686 0.6026462 0.61252344 0.68169606 0.65906924 0.51199293 0.14998019 0.20838264 0.26420403 0.31978816 0.4134441 0.4054038 0.048799075 -0.19698684 -0.26053867 0.34315887 0.50112766 0.55643797 0.22553125 0.4907959 0.4731711 0.26543552 0.6426709 0.5523755 0.5211951 0.19561918 0.72759396 0.74688196 0.7752446 0.65926796 0.41416013 0.4109705 0.62559795 0.742695 0.68247503 0.44472575 0.48414224 0.5424981 0.6021291 0.7280334 0.7578056 0.7103287 0.76286817 0.7961277 0.799984 0.7714899 0.73379874 0.8018403 0.8004344 0.75140274 0.7689764 0.7876611 0.7756604 0.56113535 0.6815163 0.32375216 0.4342453 0.26779848 0.31849483 0.41064855 0.46838468 0.39830312 0.3410123 0.28028783 0.22672343 0.38686585 0.44291848 0.5025246 0.5270635 0.5387423 0.561436 0.5121295 0.44854054 0.29873735 0.29529172 0.17170261 0.038064465 0.14171058 0.30766332 0.32060808 0.36908162 0.41265905 0.46977293 0.5771871 0.5919813 0.6442725 0.59508705 0.5222171 0.38508588 0.33545431 0.12772603 0.15611878 0.10900365 0.008786768 -0.04723668 -0.04376194 0.049260654 0.30298647 0.38360488 0.3662965 0.51883656 0.5169494 0.6125047 0.66814804 0.62505215 0.5144255 -0.031234585 -0.09177392 0.12558006 0.22565305 0.29957935 0.3804834 0.37138045 0.6191441 0.6392234 0.5244384 0.5637791 0.6454034 0.594642 -0.0118967 0.30309784 0.36449772 0.37394148 0.6946794 0.70805097 0.39684513 0.36633438 0.58626366 0.54538226 0.04267989 -0.14062795 0.2459478 0.3243492 0.68412554 0.6968276 0.4512653 0.43151045 -0.09292415 0.11637066 0.17799461 0.6574693 0.64802617 0.64808476 0.6428332 0.58019507 0.4118461 0.28396225 0.26384 -0.12670584 0.597781 0.89984 0.8547417 0.76961553 -0.4143473 0.36197376 0.6936759 0.17518081 0.1443151 -0.32046503 -0.2728421 -0.31295785 -0.1576035 0.5640206 0.5861342 0.24653666 0.16876227 0.17883903 0.41708687 0.20610894 0.3157974 0.5234929 0.52176464 0.46328953 0.22689673 0.13912284 0.302512 0.47798473 0.43089542 0.3809352 0.49606803 0.55763793 0.6214682 -0.016134026 0.03634474 0.016306639 0.2080875 0.24358395 0.17348208 0.46482813 0.53952605 0.6049225 -0.14135201 -0.062181696 0.14527333 0.15487306 0.15653898 0.50668156 0.5597209 0.27659336 0.22373496 0.1605157 0.14593606 0.11388918 0.28540307 0.249594 0.12939309 0.23274943 0.237955 0.023022518 -0.015302792 0.25157407 0.2573574 -0.0476778 -0.13477875 0.3988933 0.33676407 0.034904048 -0.018410683 -0.036617756 0.081149384 0.07274033 0.49477398 0.51042616 -0.00056393817 -0.03864385 -0.022610292 -0.02031512 -0.10186648 0.5546268 0.6142436 0.30203012 0.2503195 -0.16519362 -0.39715108 -0.4377172 -0.49859786 0.59620583 0.6507956 0.66965973 0.3645554 0.3350129 -0.19737998 -0.35693982 -0.102077626 0.5208364 0.58196664 0.67994833 0.6476196 0.59270537 0.22510925 0.068221055 0.16194531 0.38146845 0.41840047 0.40625995 0.07554136 -0.17621769 0.432364 0.5405315 0.22956853 0.24785334 0.26799887 0.31428015 0.32223085 0.47404343 0.6886498 0.5234267 0.5445384 0.64081204 0.5627303 0.3413216 0.52652735 0.5722114 0.6629471 0.6200594 0.2756916 0.33151892 0.39205924 0.4390108 0.4751413 0.52102745 0.70867 0.58421504 0.46570474 0.74795365 0.7952516 0.7877188 0.73314404 0.69433165 0.78381634 0.7589595 0.68146026 0.72080374 0.4247362 0.29555053 0.43370274 0.073485754 0.23396727 0.39404202 0.3955739 0.3510192 0.11979255 0.3683151 0.3915827 0.43192783 0.4506284 0.4193709 0.6580508 0.60579264 0.49150485 0.4075572 0.19685006 0.36396617 0.40679416 0.3661787 0.21994582 -0.03198589 -0.021764189 0.11747795 0.3455382 0.48726547 0.5392424 0.52112085 0.66987526 0.62516737 0.5626257 0.48897898 0.2999043 -0.018172994 0.2980704 0.27210826 0.2546482 0.55575114 0.57091033 0.6738547 0.61947346 0.3194908 0.44188473 0.35111797 0.59144413 0.59076625 0.7106348 0.32598746 0.54536116 0.499393 0.53804874 0.68182576 0.08817962 0.3139732 0.1973672 0.65863186 0.21877259 0.3475776 0.63131696 0.527616 -0.26983434 -0.10621534 0.16551736 0.64629495 0.26229206 0.17207538 0.46640134 -0.29123873 -0.4452991 0.08470326 0.19120976 0.63678825 0.61087227 0.25211585 0.30292046 -0.3797229 -0.34927276 -0.19159025 -0.19527423 0.7290532 0.573347 0.47249985 0.16851404 -0.3635763 -0.36349916 -0.37516037 -0.30871192 0.3295012 0.6492348 0.66139716 -0.34598103 -0.37359363 -0.39001697 0.57218325 0.34276754 0.23880279 0.22969094 0.38878107 0.39242753 0.5194956 0.5335878 0.51456743 0.33623013 0.31159407 0.27784473 0.3536602 0.46558458 0.46710622 0.45805413 0.5078049 0.63903254 0.29161662 0.24422388 0.10127888 0.13558908 0.3223418 0.38778973 0.29675332 0.40071112 0.45890903 0.5465571 0.6573403 0.6986835 0.14392598 0.17688173 -0.004173368 0.3739782 0.414318 0.6420877 0.6737013 -0.085586 0.03429167 0.20222567 0.36450636 0.4820553 0.58611524 0.62838566 -0.03141788 0.02047924 0.04996182 0.07826217 0.32095075 0.50581163 0.14513198 0.09802674 0.027514521 0.18669572 -0.13898683 0.20782761 0.21683146 -0.0572 0.20001054 -0.43713242 -0.13348731 -0.12957284 -0.17494938 -0.06291675 0.09246117 0.18212983 0.19624907 0.19090134 -0.15966082 0.0694913 0.39591137 0.41741914 0.29090053 0.12146955 0.09380824 0.45165178 0.35771713 0.0036338344 -0.06699248 0.47905806 0.53189254 0.537624 0.23330596 -0.13859001 -0.17090335 -0.30950943 -0.3708713 0.5362908 0.5913205 0.3220455 -0.2229727 -0.25497532 -0.4484605 0.07798272 0.4441088 0.5292953 0.6104112 0.1701017 0.13935015 0.3386623 0.37986726 -0.06146315 -0.05482412 -0.10063205 0.34030658 0.24180469 0.23952955 0.2400406 0.28384614 0.3009042 0.090987064 0.18851282 0.309194 0.34973338 0.36701405 0.3757705 0.46691698 0.45215124 -0.23832011 0.24090509 0.3585768 0.4509288 0.4976524 0.5328138 0.53194284 0.28913823 0.27690008 0.2992244 0.39116898 0.65018713 0.6715105 0.5122708 0.70594484 0.76038134 0.76337135 0.71302915 0.6262322 0.75901854 0.5474155 0.491637 0.29117352 0.418003 -0.19212107 -0.015017398 0.34331146 0.35880303 0.37563476 0.35631213 0.3415152 0.32648668 0.37430233 0.36319506 -0.039959706 -0.13842535 0.2796378 0.33305565 0.3801698 0.7651358 0.73632896 0.67636263 0.5242641 0.27537352 0.23417959 0.26472834 0.31692493 -0.050934188 -0.087334506 0.07249175 0.18886542 0.23650488 0.36867854 0.74596035 0.70370525 0.18078844 0.19945803 0.5107885 0.736392 0.16934061 0.44780642 0.32250786 0.4980473 0.734277 0.73365545 0.21120381 0.55850387 0.4275815 0.37095273 0.4305323 0.66011834 0.11603753 0.08077143 0.6174836 0.050297618 0.5914681 0.51144946 -0.38385868 0.05910356 0.5540736 0.0065744743 0.36714515 -0.41900343 0.038581192 0.5252745 0.47794405 0.047386408 0.26972485 -0.34532887 0.07515734 0.43304732 0.5483022 0.56153923 0.2059427 0.3832714 0.34820917 0.07054843 0.38456708 0.38552704 0.32287845 0.3582067 0.4223834 0.4599856 0.47534692 0.32860357 0.34494802 0.38764834 0.51237464 0.3652603 0.25731423 0.2752474 0.30850685 0.35784614 0.4197467 0.5835031 0.54744476 0.30636403 -0.22581756 -0.0014328659 0.6618943 0.65641797 0.6194009 -0.22219874 -0.12785235 0.07379751 0.16195948 -0.065532245 -0.126769 -0.24983333 0.13340528 0.27935958 0.48131266 0.5233925 0.07339611 -0.25335974 -0.31223863 -0.057543796 0.14136082 0.2816399 0.5398934 0.5473541 0.18377188 -0.78166765 -0.3105093 -0.36324972 -0.26024735 -0.10807103 0.1293833 0.45769376 0.5477854 0.5536956 0.18115449 -0.7175429 -0.42537045 -0.10198191 -0.26848653 -0.21912459 -0.18729621 0.39531705 0.5155449 0.16711694 -0.3843898 -0.27676308 0.18904705 -0.19167106 0.08646339 0.30359828 0.19040687 0.10426642 -0.0055703297 -0.029260535 0.4013476 0.104371265 0.04673262 -0.022946168 0.4344081 0.4039533 0.14088151 -0.070436366 -0.089379095 0.37764448 0.36545372 0.2646038 0.22672382 -0.0667853 -0.38334888 0.023040488 0.20204379 0.3951731 0.4296364 0.30134064 0.30911225 0.39327693 0.26736307 0.28738418 0.3179767