# vtk DataFile Version 2.0
Really cool data
ASCII
DATASET POLYDATA
POINTS 1855 float
10.243983 48.880558 91.818886
10.200287 48.699917 92.38465
10.314219 49.642986 91.00795
9.956231 49.57327 91.73512
9.850394 49.472557 92.46651
10.200867 50.714336 90.940735
9.926789 50.502922 91.55593
9.828169 50.345665 92.35448
10.070052 50.270195 93.221375
10.295837 51.489697 90.75583
9.980175 51.46998 91.52713
9.980758 51.429718 92.26334
10.302531 51.652164 92.9823
10.196157 51.9148 91.01992
10.25176 52.143974 91.52754
10.249734 52.159725 92.30815
11.131886 46.955616 93.22985
11.281898 47.029743 94.69047
11.144191 47.44315 92.392944
10.710977 47.529522 93.5022
10.948678 47.44723 94.200386
11.212971 47.601658 94.979576
10.634758 49.08943 91.12419
10.58804 48.76147 91.510315
10.648715 48.497818 94.134315
11.322277 48.4212 94.98364
10.570891 49.749107 90.79499
10.516788 49.627014 93.87495
10.74832 50.86666 90.362366
10.524994 50.832336 90.46848
10.991367 50.36692 94.274506
10.842955 51.570652 90.315956
10.479008 51.48139 90.5202
10.634631 51.53301 93.537575
10.648104 52.096066 90.72928
10.546458 52.432686 91.37523
10.483582 52.388317 92.518654
10.763687 52.18806 93.1483
10.882527 52.58312 91.17396
10.78951 52.623367 91.49874
10.906246 52.74463 92.372215
12.251322 44.986984 93.58924
12.061403 44.942287 94.710625
12.180522 44.82428 95.30571
12.320241 45.629536 92.6699
11.872458 45.503246 93.64811
11.7894745 45.904655 94.31083
11.988938 45.66608 95.665726
12.101036 45.63633 95.80336
11.5695715 46.62995 92.91365
11.517404 46.511745 93.66972
12.136121 46.237858 95.974045
11.871884 48.2624 91.018486
11.567037 47.337814 95.38847
11.644533 49.05935 90.54679
11.876103 48.405178 95.52831
11.967669 49.876476 90.15367
11.597042 49.236065 90.48051
11.748565 49.517258 95.145706
11.514304 50.71596 90.241615
11.7207985 50.11339 95.03517
11.437673 51.423637 90.21185
11.606924 51.086685 94.37574
12.080766 50.852486 94.81425
11.243297 51.875362 90.32251
11.369196 52.248005 90.55355
11.323199 52.50587 93.10254
11.838222 51.771584 93.913994
11.277159 52.579712 90.916534
11.471415 52.82541 91.527145
11.444341 52.82397 92.489746
11.3335905 52.660748 92.92177
13.21185 39.982838 82.0725
13.039628 39.883305 82.55746
13.067639 39.84859 83.250725
13.31501 39.94648 84.12579
13.188844 40.52663 81.87338
12.909794 40.452713 82.53761
12.922104 40.421135 83.24932
13.326641 40.498306 84.36393
13.212783 41.229168 81.95924
13.035741 41.220757 82.51496
13.012603 41.035652 83.239265
13.129178 40.98147 83.8511
13.300363 41.822697 82.52103
13.232292 43.194466 95.991425
12.896679 43.9391 92.80669
13.002555 43.67935 93.61426
12.732376 44.04346 96.390564
13.260748 43.868042 98.29853
13.358412 43.852856 99.03536
12.853544 44.472416 92.18902
12.559254 44.535397 92.57348
12.820324 44.585884 98.269196
13.089752 44.687595 99.46258
13.331224 44.498447 99.87165
12.62648 45.41655 97.14784
12.894056 45.48396 99.41278
12.77106 46.30659 91.96468
12.848435 46.350063 97.42882
13.151715 46.20519 99.45197
13.339546 46.179626 99.90846
12.641769 48.554436 96.18337
12.310172 48.97996 95.72633
13.019849 50.002228 90.13848
12.370095 50.58985 94.991714
12.455255 51.773216 90.40147
12.797003 51.357826 94.21432
12.557199 50.84703 94.84444
12.152946 52.155724 90.573746
12.359309 52.160614 93.268906
12.339169 52.627552 91.18774
12.145857 52.768215 91.49822
11.97802 52.939594 92.08539
14.109119 35.835075 89.976654
14.071107 35.739727 90.49576
14.169883 35.83621 91.04054
14.226714 36.95395 89.15199
14.0070505 36.50766 89.672134
13.794805 36.544037 90.41108
14.030732 36.63145 91.1614
14.000796 37.381123 89.215096
13.856163 37.414062 89.70728
13.775364 37.505234 90.44829
13.903602 37.3209 90.98572
13.724628 39.25999 82.83061
13.852142 39.11868 83.47779
13.917103 39.055218 84.366776
14.04546 39.025898 85.14727
13.984316 38.50532 88.96156
13.885203 38.62381 89.5078
13.7633915 38.436085 90.300545
13.945242 38.36517 91.231064
14.204775 38.648037 91.758316
13.614684 39.765587 81.95307
13.331042 39.595104 82.43754
13.5799675 39.51659 84.555214
13.854786 39.593315 85.34099
14.3051815 39.290417 88.79793
14.241344 39.692833 89.4035
13.707126 38.944412 90.29081
13.956326 39.299564 91.18303
14.25242 39.45062 91.819016
13.846218 40.78598 81.252205
13.557761 40.545696 81.509865
13.505966 40.626137 84.56207
13.671891 40.43403 85.01017
14.165151 40.40467 85.91232
13.962056 40.681355 90.59611
14.015077 40.560505 91.29892
14.1405525 40.659794 92.3597
13.858759 41.214237 81.19363
13.546452 41.562412 81.60723
14.368301 41.546253 90.10667
14.092382 41.02543 90.51523
14.130769 41.668415 92.404495
14.037058 41.81354 81.3138
13.704564 42.03277 81.78319
13.795691 42.389874 83.08285
14.21108 42.080757 84.59128
14.480175 42.54498 85.45352
13.716177 42.942436 92.48689
13.7074995 42.83784 94.49361
13.752355 42.559418 96.51446
13.698962 42.91366 97.503105
13.701461 42.931213 98.10653
13.845158 43.27626 99.03141
13.537012 44.193832 91.5795
13.435352 43.474865 92.930565
13.441179 43.32229 97.97253
13.463225 43.821766 99.25859
13.9874935 43.76991 100.0062
14.474728 44.43444 85.50313
14.108497 44.473957 91.07215
13.744529 44.526352 100.68667
14.075243 44.806156 101.30209
13.421132 45.921555 91.41821
13.949875 45.546196 101.35145
14.235466 45.48756 101.710495
13.441358 46.621857 99.34961
13.516915 46.52173 99.96945
14.0845175 46.17194 101.34221
13.41824 47.488457 97.27362
13.915027 47.01003 99.27093
13.642295 48.43809 89.94561
14.131587 49.801315 89.45715
13.600509 48.974026 96.111916
13.2808695 50.219402 90.12476
13.580709 51.234974 93.87828
13.177582 52.150345 92.792656
12.831302 52.58437 91.45634
14.792479 35.346775 89.88494
14.609839 35.279552 90.47675
14.905261 35.315327 91.0305
14.902925 35.913345 89.24299
14.672819 35.53746 89.659355
14.598101 35.686325 91.24822
15.0257635 35.97311 91.59166
14.672535 36.934425 88.76351
14.34489 36.251923 91.44256
14.627819 36.43444 91.632195
14.861461 37.796967 88.24199
14.46049 37.21015 88.95044
14.643507 37.395374 91.80532
14.555806 39.1426 82.61434
14.5848055 38.873985 83.48514
14.730421 38.778336 84.121895
14.28181 40.247498 81.28779
14.536466 39.64456 81.82903
14.373313 39.379036 85.98144
14.880591 39.720463 87.58407
14.462419 39.81049 89.12803
14.467025 39.370235 91.994576
14.73477 40.18937 93.54645
14.608846 40.79639 81.04306
14.6697645 40.118584 86.30603
14.69475 40.565235 93.26095
15.101058 40.859707 94.93616
14.522836 41.383774 80.92463
14.921798 41.10697 87.84623
15.1020775 41.68274 96.6454
14.771529 42.033867 97.623665
14.436479 42.23192 97.96937
14.908308 42.263775 80.94346
14.85028 42.508385 87.13247
14.965095 42.612064 88.26671
14.671643 42.43912 98.77083
14.672253 42.695244 99.15771
14.935386 43.374237 81.54552
14.490171 42.960724 82.72872
14.650099 43.79073 83.211296
14.994202 43.72387 87.19342
14.987568 43.381794 88.31634
14.759735 43.636242 100.74358
14.851005 43.81081 101.22066
15.045537 43.882336 81.83061
14.986852 44.25926 82.683014
14.768585 44.530594 83.7555
14.660491 44.393536 84.56719
14.552679 44.361904 85.87993
14.619764 44.704136 86.20727
14.843937 44.58396 87.033745
14.369542 44.599598 101.470085
14.928462 44.68753 101.81983
15.223352 45.480354 83.04599
14.770021 45.27117 83.89525
14.716786 45.450436 84.4588
14.693093 45.241444 85.57675
14.926789 45.327442 86.20936
14.61404 45.599686 90.265625
14.363038 45.500854 101.74687
15.22968 46.085213 83.67448
15.112476 46.03585 85.02753
14.30235 46.413143 101.4709
14.692427 46.25386 101.86132
14.751264 47.080322 100.66811
14.713532 47.093216 101.044205
14.831083 47.857136 97.144356
14.349794 49.54852 89.28597
14.064507 49.366642 95.56203
14.801277 50.62211 89.64077
15.085993 51.292107 93.01136
15.086305 35.367413 89.71112
15.291226 35.166874 90.42854
15.483031 35.32495 91.009224
15.4699745 35.773438 89.16542
15.759901 35.444542 89.57531
15.529951 35.620743 91.35951
15.3521805 35.960484 91.62087
15.421474 36.331284 88.86763
15.629305 36.682453 91.92122
15.573771 38.20171 87.59276
15.158736 38.072517 92.19582
15.272354 38.692154 84.54207
15.087593 38.733746 85.40951
15.148821 39.709167 81.84062
15.685639 39.594902 93.56135
15.39528 39.782448 94.23902
15.9472065 40.64057 95.64291
15.946963 41.06189 97.09855
15.435443 41.86195 98.3073
15.535789 42.78107 80.75072
15.36621 42.550907 99.43695
15.548282 43.218586 100.42175
15.788729 43.031036 80.56799
15.64105 43.875572 81.2221
15.609359 44.032 81.45739
15.503161 44.63092 88.14439
15.716206 44.852448 102.38564
16.223965 44.85301 102.70207
15.623013 45.474674 82.752975
15.548509 45.626366 89.55914
16.223717 45.57528 102.92597
15.450626 46.43058 83.776825
15.615128 45.97125 86.27511
15.813994 45.929462 87.02796
15.472382 46.43877 102.1466
16.01904 46.773903 83.759
16.061537 47.070606 84.778
15.269025 47.46785 99.65382
15.305787 47.401012 100.67924
15.3405905 47.12666 101.28767
16.104202 46.913147 101.778114
15.970024 48.38548 97.25432
15.539898 47.665726 99.594
15.517948 47.74367 99.98523
16.04198 49.768734 88.465
15.819529 49.260952 94.50307
15.467517 49.199886 95.06137
15.555285 50.55702 89.345024
15.364747 50.625717 89.4165
16.223125 51.14165 88.73457
16.0175 53.197742 90.997284
15.970181 53.211266 92.15319
16.440853 55.92553 89.7428
16.450443 56.785393 90.86799
16.412443 57.169262 90.509026
16.308292 58.063663 91.693214
16.275686 58.20604 91.63041
16.148087 58.61313 92.493164
15.976121 60.05089 90.91612
15.91942 59.396114 92.40917
16.219995 59.65073 93.047325
16.303843 60.880505 90.09925
15.758494 61.03673 90.97525
15.598354 60.77274 91.715576
15.927194 60.8407 92.53344
16.153095 60.590137 92.90054
15.859871 61.400536 90.80646
15.615302 61.5128 91.54426
15.830676 61.618538 92.292305
16.092508 61.34664 92.679634
16.036638 62.00577 90.899345
15.922837 62.134514 91.5334
16.002657 62.1089 92.08267
16.318453 35.341908 89.85557
16.301256 35.27377 90.39873
16.434175 35.395683 90.88422
17.318233 36.207436 81.798676
16.432 35.906307 89.12486
16.788443 35.648296 89.44511
16.50429 35.71545 91.22928
16.09968 36.082592 91.65516
17.015507 36.69065 81.61668
16.952158 36.79741 82.29175
[...]
POINT_DATA 1855
SCALARS features_00 float 1
LOOKUP_TABLE default
0.5080598 0.48176962 0.5833889 0.5964435 0.59971637 0.69993484 0.70129895 0.7211905 0.7104783 0.76393604 0.79291785 0.8081683 0.76690716 0.79254794 0.81360686 0.80938447 0.30980363 0.34208494 0.31733248 0.381994 0.36985508 0.37296778 0.5239267 0.48777163 0.45439637 0.39928922 0.5774524 0.56291413 0.6671922 0.68173456 0.50490236 0.740554 0.7531352 0.6761588 0.7858201 0.8112432 0.80003184 0.73850554 0.8008561 0.8084896 0.79864824 0.23727766 0.2587917 0.25515825 0.2574451 0.2312541 0.263658 0.23100452 0.22187056 0.25176373 0.28385317 0.20318197 0.3794536 0.3393111 0.4542386 0.36420786 0.4268745 0.4665772 0.40843105 0.5785361 0.40643406 0.68681324 0.46947268 0.41556698 0.74831665 0.7704353 0.72085035 0.5239744 0.7854511 0.7887291 0.77860457 0.7482044 0.7460638 0.75639844 0.7192087 0.6257773 0.72121656 0.7432909 0.70899355 0.56132525 0.684259 0.70092756 0.67759633 0.59837675 0.62285113 0.22527222 0.23232639 0.20533508 0.22259656 0.29658625 0.33660755 0.2523613 0.25929734 0.31684098 0.43836653 0.44336647 0.27692166 0.5183759 0.23448464 0.2996357 0.4764576 0.5307878 0.32892817 0.36815763 0.25142908 0.37919813 0.6740078 0.3880395 0.36724555 0.7421376 0.5641796 0.7588186 0.7685069 0.7706073 0.92138743 0.97979724 0.9297223 0.6709515 0.7882707 0.85190153 0.8096085 0.6141311 0.6390554 0.6357504 0.6720674 0.70758235 0.66348994 0.59957194 0.5465877 0.44709647 0.44648015 0.46586478 0.4693557 0.4159816 0.72637856 0.74668616 0.5922133 0.51574403 0.25241718 0.22418764 0.39139763 0.33858877 0.27178705 0.6571475 0.693597 0.5094554 0.4718894 0.34865546 0.24636291 0.22570248 0.14884688 0.62237144 0.6235632 0.10321261 0.21449326 0.082358986 0.54459095 0.55524915 0.45217532 0.30925435 0.10050939 0.091215804 0.12905362 0.23454997 0.26554152 0.28630218 0.31734124 0.23695612 0.16829233 0.28154206 0.3462941 0.38032675 0.25553825 0.19408971 0.49079394 0.51386887 0.20301318 0.55076694 0.5303411 0.4091183 0.49875328 0.55125767 0.19710982 0.34386104 0.12157625 0.012786865 0.253854 0.21108907 0.2717144 0.54332554 0.73809433 0.92409366 0.9886596 0.93395424 0.78621274 0.88232195 0.90302885 0.81115377 0.62542295 0.8302193 0.77509534 0.48621404 0.6076912 0.6478789 0.64785194 0.56691766 0.4986667 0.6553699 0.6760146 0.4492601 -0.0375826 0.15959656 0.25549304 0.23504792 0.5696057 0.26617184 0.17482215 0.23037739 0.5216495 -0.09605098 0.19333938 0.2532311 0.26929358 0.3916887 0.038088925 0.009265441 0.28178158 0.29432106 0.3162714 0.30769184 0.21814899 0.10872874 0.053178653 0.4030353 0.4322834 0.2725756 0.24243535 0.27745125 0.2839937 0.22124276 0.23462935 0.18424203 0.49149257 0.4675455 0.3383364 0.33846346 0.35766917 0.30952308 0.27678975 0.04447281 0.5268825 0.40992296 0.40340582 0.5315903 0.5212736 0.40268067 0.4253618 -0.04670478 -0.006388098 0.16669264 0.00010190904 -0.14077498 0.87882787 0.93962574 0.900568 0.75494576 0.8076173 0.84332454 0.7924847 0.67679024 0.6800873 0.44482467 0.535213 0.36348757 0.43569553 0.6155501 0.341749 0.35725665 0.15861002 0.17313099 0.2371152 0.30610526 0.24616161 0.27226132 0.2781346 0.26113635 0.2554546 0.058322757 0.4668128 0.4732641 0.3200853 -0.21102333 0.5261013 0.42597649 0.30853128 0.21316825 0.46908897 0.42308468 0.4092897 0.24725571 0.31628346 0.37498033 0.37526894 -0.20901498 0.20759977 0.24040115 -0.07977228 -0.07044855 -0.055911243 -0.03861694 -0.030108497 -0.0808696 -0.06919846 0.10659136 0.28350443 0.21861975 0.22969475 0.26485458 0.28086263 0.4108513 0.738228 0.58588564 0.6287564 0.7737893 0.90734875 0.87317526 0.77925944 0.7040493 0.92878765 0.96631604 0.9112488 0.83052385 0.9543798 0.96064746 0.93716013 0.79906845 0.8446361 0.835323 0.31257224 0.670408 0.71080494 0.79213524 0.7422675 0.30961782 0.29546335 0.24646007 0.4907508 0.6260916 0.31703338 0.062565684 0.37497914 0.48946935 -0.027489424 0.38333994 0.062400483 0.13595639 0.1666654 0.16939417 0.16494545 0.24949844 0.21735735 0.28617263 0.5485713 0.40461385 0.49872345 0.41107056 0.41554713 0.37722299 -0.10899154 -0.03877814 0.3155975 0.37570667 -0.012927793 0.056000732 0.09942359 0.2133823 0.2967836 -0.011299724 -0.049487177 -0.011872895 -0.047595054 0.13669196 0.22352126 0.071939476 0.06427646 -0.27139592 0.22202885 0.21518011 0.14621457 -0.10704015 0.2741078 0.23296025 0.23502293 0.3315209 0.29262593 0.26019213 0.11932218 0.30572808 0.28505492 0.24337617 0.27249777 0.28064618 0.2095896 0.18544365 0.2386009 0.2563945 0.1981258 0.46364242 0.6010995 0.60100013 0.6993446 0.6604195 0.62498015 0.7856233 0.7448647 0.8400626 0.92527527 0.9215131 0.8914763 0.85752946 0.91109943 0.8971274 0.38088894 0.7693015 0.78721005 0.3031013 0.31733322 0.3368345 0.37981546 0.37340784 0.6295537 0.71061903 0.74603 0.72150046 0.2813689 0.31597745 0.5839041 0.3169036 -0.022757366 0.42249614 0.35032952 0.34564304 0.3249912 0.30835524 0.27571207 0.3165915 0.2317259 0.21191457 0.30110398 0.0011508465 -0.24913342 0.1322919 0.19534585 0.3058514 0.25078642 0.19273254 0.07630798 0.16727117 0.3263806 -0.16220945 -0.08608058 0.42307225 0.0010170173 0.6029494 0.67245483 0.3433143 0.28606662 0.50550115 0.507743 0.4660708 0.39595497 0.30371475 0.54646814 0.64599836 0.5595274 0.52325106 0.31646052 0.1794039 0.3456232 0.4130491 0.16693729 0.076772824 0.38078666 0.41521916 0.49750903 0.35350633 0.2933495 -0.3047491 0.022861978 0.39244795 0.3421337 -0.12615716 0.12402739 0.42131025 0.38668835 0.18638381 0.37871784 0.2557004 0.23713265 0.22778046 0.24979164 0.19398768 0.3676983 0.54182047 0.5698745 0.6472155 0.6282196 0.7126055 0.6865224 0.8045753 0.88101304 0.8443165 0.81013215 0.74018496 0.8688153 0.38974428 0.4163774 0.40752548 0.15846488 0.38115138 0.31781727 0.6601104 0.70975214 0.2622195 0.23638526 0.25537795 0.33071932 0.28434598 0.5687311 0.6249622 0.4762088 0.29428065 0.27019757 0.24798137 0.31605846 0.20174663 0.36264014 0.33463138 0.2823533 0.32847977 0.3326583 0.25826332 0.26455402 0.20676261 0.3525417 0.35781366 0.193676 0.37438047 0.3804693 0.1445838 0.15956122 0.34563255 0.2861149 0.4048547 0.34402877 0.38826865 0.40253466 0.40959725 0.31663102 0.24919 0.14476717 0.28170592 0.21027032 0.45624155 -0.13309437 0.69375616 0.55068076 0.1746841 0.7244499 0.6346352 0.4150926 0.4430182 0.71845907 0.6732886 0.6610162 0.5853251 0.4810965 0.4582345 0.23986474 0.6477836 0.7021959 0.688765 0.6605529 0.63055843 0.61812335 0.6258475 0.38261062 0.6988912 0.6707247 0.6676872 0.66492534 0.47542316 0.30953622 0.4932894 0.5240669 0.5036147 0.43536118 0.4451283 0.23902512 0.41016984 0.37640497 0.2468194 0.18292665 0.103025496 0.21815291 0.18384056 0.29038948 0.61466 0.68353975 0.78710866 0.64668965 0.7495576 0.71808374 0.3847842 0.3973753 0.39337128 0.3185981 0.3977836 0.3332706 0.177191 0.33973628 0.21888217 0.19380492 0.19539136 0.19513753 0.33931208 0.029646993 0.22349204 0.34469193 0.23816745 0.20818818 0.21577016 0.58876276 0.56507164 0.56836885 0.36096415 0.18863724 0.19040218 0.49974316 0.36351275 0.37392184 0.03481437 0.07083964 0.070590906 -0.32775402 0.393808 0.4103802 0.38372993 0.32736742 0.38322514 0.33522958 0.16496925 0.15127945 0.62469006 0.7649313 0.76557374 0.6303091 0.74231696 0.7443449 0.6915199 0.16184157 0.6075641 0.70347667 0.70826775 0.71189773 0.63399136 0.11300593 0.14933771 0.36616302 0.46195227 0.5592897 0.7276572 0.7221794 0.6849023 0.6525264 0.63625014 0.2083645 0.66241795 0.6504087 0.52691054 0.3947088 0.3936987 0.19912282 0.12207438 0.36692 0.153903 0.12654662 0.19504428 0.31222853 0.22900131 0.22004533 0.57112044 0.557109 0.4544078 0.5283413 0.595418 0.42694658 0.35728544 0.12159219 0.30861956 0.25710636 0.1576887 0.15585154 0.17777339 0.20941457 0.0300617 0.2680115 -0.004367918 0.65033495 0.6800756 0.6672769 0.63447106 0.3235354 0.6115052 0.60300946 0.5465343 0.34823957 -0.038778633 0.5249072 0.02117645 0.46500647 0.36574185 0.6357933 0.5046472 0.30180693 0.7558687 0.61603504 0.70818496 0.6797844 0.066900544 0.5329352 0.61129767 0.6792754 0.70688534 0.71434164 0.15353896 0.3971149 0.5315678 0.7117593 0.7182242 0.753791 0.60389143 0.6001988 0.15493661 0.6600028 0.62332064 0.14296688 0.45073354 0.10579601 0.46591562 0.46152765 0.1929363 0.3716493 0.46586603 0.07326849 0.09802043 0.12638901 0.28192702 0.0066348054 0.24416071 -0.038950317 0.24885967 0.24098055 0.49911517 0.49989098 0.46222097 0.48015857 0.4845053 0.44498867 0.20876595 0.08538409 0.09227155 0.1353235 0.1160769 0.15227576 0.166516 0.16875751 0.2078645 0.19459276 0.15821739 0.094079785 0.032825653 -0.04262896 0.713999 0.7070315 0.68738323 0.31928393 0.6659194 0.65685034 0.62424165 0.38524696 0.5422329 0.5979259 0.59215534 0.018046498 0.026891775 0.02626767 0.07219427 0.35723457 0.22400661 -0.04274927 0.5809827 0.33382046 0.21324922 0.69302404 0.6085461 0.0056711845 0.13676608 0.20563427 0.5025824 0.6529087 0.6902441 0.6828505 0.28191614 0.31214112 0.021586597 0.25515515 0.55280066 0.63151824 0.69285375 0.7034755 0.15381807 0.28136465 0.707574 0.7052083 0.72782 0.6888453 0.6135217 0.5876191 0.16986528 0.50055 0.46401846 0.6187265 0.12457555 0.48926362 0.055939272 0.4796921 0.47632515 0.4745793 0.08757098 0.4207217 0.07117464 0.37133607 0.38343138 0.34300405 0.39082086 0.29893044 -0.08107001 0.34799087 -0.10244064 0.2516656 0.22274023 0.23506662 0.50164866 0.5091311 0.50432986 0.50701654 0.5113023 0.17523894 0.14000294 0.13495342 -0.033952832 0.0015653223 0.08011952 0.09483605 0.15029727 0.12700118 0.1336856 0.13367096 -0.21076974 0.731134 0.717108 0.46595538 0.3873806 -0.033777166 0.6871247 0.7273384 0.7118653 0.6622069 0.482775 0.45947742 0.061577603 0.5912127 0.6961342 0.6157547 0.58863235 0.49378082 0.47841406 0.036288492 0.045755804 0.5529959 0.5501553 0.2684664 0.083493814 0.1404482 0.22025193 0.44189167 0.5148458 0.50753033 0.046288434 -0.07503395 0.3891221 0.41719916 0.46382654 0.46554065 0.036759228 0.30331767 0.31646442 0.34415624 0.67863894 0.60578156 0.3722094 0.23145434 0.16064847 0.69574726 0.6823423 0.64809453 0.6054759 0.52320266 0.18518817 0.32961094 0.6923286 0.6952491 0.5899647 0.20163205 -0.100652665 0.36396796 0.5131487 0.51729304 0.14352143 0.34892046 0.5081235 0.50974166 0.098138824 0.054785404 -0.06222142 0.07138184 0.5059671 0.5368645 0.4586708 0.37649477 0.50404596 0.47688156 0.5105952 0.5188862 0.4768599 0.53808105 0.51515514 0.36892363 0.49487543 0.54070604 0.4986449 0.35254136 0.1597715 0.3597786 0.4678836 0.2455512 0.22622257 0.51577735 0.4810061 0.489173 0.48780966 0.48188403 0.5024411 0.50341904 0.45255408 0.4686013 0.43717566 -0.07019785 0.25321683 0.117078766 -0.0593391 0.12524731 0.10181892 0.026775658 -0.007050054 -0.17342523 0.15002422 0.11779651 -0.18078986 -0.19701412 0.43892816 0.36781734 -0.02126022 0.5049348 0.68820906 0.50019026 0.021922734 0.029850286 0.64157784 0.6356323 0.498784 0.49270028 0.65226114 0.57045263 0.5617026 0.56086123 0.4668636 0.40511736 0.48482305 0.52088946 0.3218551 0.16249631 -0.011804149 0.15680452 0.08976234 0.066823885 -0.18899058 -0.35436803 -0.05210924 0.097948745 0.15538158 0.1330573 0.2553342 0.23804975 0.2777784 0.056208603 0.19198096 0.14448333 0.011889616 0.08023408 0.4915006 0.00865069 0.62941086 0.5095754 0.20489612 0.6846092 0.34376246 0.63477176 0.45566255 0.6036097 0.5899183 0.5683285 0.61168456 0.5950792 0.5194986 0.5430963 0.61733985 0.5918164 0.4581647 0.5459 0.23842698 0.21722421 0.2143997 0.18544564 0.5289025 0.5649898 0.57486 0.55701554 0.58653307 0.60525584 0.45177734 0.46646008 0.4570933 0.38375044 0.16699141 0.038688783 -0.15797512 -0.18172738 0.26932028 0.24940464 0.14176169 0.13750641 0.1502931 0.18965492 -0.005775783 0.08501853 -0.114497826 0.22584601 0.41013497 0.19116522 0.3368685 0.4959827 0.092516504 0.49594218 0.49299434 0.46822393 0.0074922307 0.02941651 0.45247126 0.3927055 -0.026288785 0.36414155 0.31200412 0.24138461 0.25412717 0.0023234151 -0.0126663335 -0.07969673 -0.3612998 -0.14132768 -0.34464324 -0.020534918 0.30060175 0.021608938 0.055817537 0.31338403 0.5965709 0.24640766 0.6495192 0.38030893 0.67176986 0.3921225 0.458391 0.6371844 0.556329 0.5916966 0.6409035 0.6018434 0.60492873 0.61497426 0.61030304 0.59644413 0.44637698 0.5707448 0.5748966 0.20924063 0.18705945 0.2421168 0.6165596 0.5896578 0.5757692 0.62375224 0.6221837 0.52536964 0.30547598 0.37695596 0.38850945 0.4102335 0.32790828 0.3717777 0.42299506 0.3848682 0.18182877 0.3857597 0.28305453 0.24441788 0.31836057 0.32293814 0.2506748 0.24529114 0.4437001 0.20444396 0.22511888 0.4065237 0.53219503 0.35072985 0.3346424 0.598972 0.19732457 0.43504167 0.634236 0.47876337 0.4148222 0.39154392 0.0034374353 0.39639562 0.39369357 0.34457254 0.33873942 0.31484538 0.2909265 0.22524104 -0.070363045 0.23051919 0.1632446 0.0621611 -0.21084377 0.077232055 -0.12627214 0.13480462 0.13575062 0.26737323 0.2723185 0.28608868 0.27334842 -0.00971178 0.276348 0.11070597 0.10569352 0.1495634 0.08874303 0.5775215 0.4268793 0.6274615 0.4925905 0.27828526 0.3238575 0.38043806 0.6455941 0.41288692 0.4608308 0.6023437 0.5304018 0.5732846 0.56743586 0.6595743 0.58406335 0.57116675 0.5448304 0.66014314 0.57774115 0.569296 0.49952227 0.2567172 0.6282947 0.32120377 0.6254035 0.32691687 0.55814886 0.65305394 0.6533867 0.65383744 0.6063533 0.54071844 0.37383857 0.3964939 0.42637122 0.5918406 0.5990406 0.5495808 0.4689532 0.2812369 0.2414656 0.30222747 0.40440524 0.17518151 0.22226372 0.38855422 0.42915648 0.3947661 0.38561806 0.51137114 0.3352429 0.7963325 0.5700236 0.2594346 0.4576013 0.50189185 0.70790553 0.6192671 0.56827927 0.6344866 0.65708977 0.5695349 0.7030406 0.7081114 0.5162224 0.25606042 0.6512641 0.098122954 0.31081468 0.30611104 0.32080966 0.31195778 0.3031801 0.31155872 0.2767969 0.18304504 0.111916006 -0.1393947 0.3722164 -0.05267245 -0.05050704 0.36210957 0.32589924 0.08235274 0.11784211 0.15765594 -0.021837685 0.21637957 0.14438488 0.059862107 0.13525899 0.119281605 0.19605653 0.05876316 0.083490945 0.07192483 0.19761726 0.03858946 0.48674256 0.38704005 0.20700812 0.2594048 0.58395034 0.42051566 0.34174788 0.41981018 0.5878761 0.49972194 0.5211234 0.5448892 0.5131643 0.4365862 0.6125821 0.55270565 0.5319405 0.64985776 0.6042824 0.63984436 0.41298676 0.42701882 0.6376579 0.308382 0.5547357 0.6092034 0.6723807 0.76820016 0.727082 0.70654476 0.63517606 0.5116329 0.37294674 0.40525573 0.7543378 0.2603713 0.40035015 0.4237352 0.36550218 0.38127312 0.29398322 0.37120843 0.42715645 0.4090369 0.36699736 0.819809 0.6877922 0.3473214 0.28197896 0.8737576 0.8321906 0.29631397 0.40970707 0.49390852 0.8559135 0.80654716 0.5647586 0.6339038 0.7472533 0.65046144 0.6484704 0.64349294 0.5536814 0.6429293 0.24980307 0.1564089 0.6173483 0.3163695 0.44120565 0.32376915 0.34229755 0.1981013 -0.004005948 0.43774593 0.3290708 0.33363792 0.32732266 0.22494227 0.12623852 0.0034834892 -0.029904611 0.45913196 0.4616865 -0.026949689 0.47659257 0.11241308 0.42653948 0.15380096 0.31656307 0.21822873 0.2539798 0.17190883 0.2782642 0.28344333 0.1675358 0.24878038 0.23261683 0.28164914 0.29777282 0.3417467 0.26589644 0.14500904 0.266895 0.28268278 0.09686728 0.20124568 0.33651057 0.0034564734 0.36509 0.4731155 0.5835699 0.36557686 0.42747563 0.5147443 0.5705368 0.5204304 0.54715705 0.51175207 0.4928446 0.43193975 0.40713415 0.51935935 0.57878053 0.7891157 0.7711376 0.72821116 0.7320086 0.5111111 0.22928254 0.34986088 0.40290418 0.37545934 0.6871644 0.36790824 0.23717903 0.5434629 0.12560478 0.255628 -0.06348326 0.35513023 0.3786494 0.8471335 0.72526914 0.34977642 0.35917205 0.90771663 0.8797481 0.27164036 0.40177226 0.91662765 0.46126527 0.55586386 0.60240746 0.8782251 0.8188261 0.6023435 0.60716826 0.68646 0.56948507 0.55839366 0.60667956 0.44541886 0.5749905 0.47632718 -0.04731332 0.28890365 0.25004444 0.023879359 -0.007231867 0.342819 0.32519418 0.18120465 -0.027949411 0.49351862 0.48686832 0.029302739 0.013992079 0.52809685 0.5260651 0.024125196 0.5373429 0.5201568 0.3049546 0.45764008 0.34597376 0.29583302 0.3510089 0.39161593 0.4085859 0.35726547 0.17771593 0.32540032 0.54264545 0.41921705 0.6033322 0.55171776 0.55523175 0.45244327 0.55026114 0.4395496 0.48086095 0.504858 0.53974664 0.5706359 0.5494562 0.53232205 0.41775873 0.48726815 0.5396243 0.55003655 0.5146886 0.44384438 0.69206935 0.6705378 0.63983095 0.7101605 0.64027536 0.6175293 0.58540964 0.5729314 0.6098981 0.17105833 0.20354107 0.19144095 -0.016559038 0.2131014 0.312325 0.7943554 0.70492506 0.5624132 0.22705156 0.29055884 0.86989224 0.81690955 0.69561785 0.27192426 0.29803813 0.8971638 0.80846816 0.8284532 0.70440245 0.2326639 0.41676074 0.49390507 0.52945447 0.5328989 0.4538429 0.50122285 0.5212253 0.31172508 -0.0404282 -0.03556445 0.449122 0.459921 0.5203192 0.072335914 -0.016852707 0.027324108 -0.22389404 0.61322206 0.02505903 0.061911974 0.046001226 -0.36602393 0.5696788 0.028169498 0.05112359 0.5984709 0.5593647 0.113727614 0.6204837 0.34251502 0.52214605 0.07867205 0.17184752 0.26137194 0.36348772 0.42345202 0.4584288 0.4542649 0.42818162 0.35593513 0.3201157 0.15185294 0.2759696 0.35872436 0.68085533 0.6866813 0.6215988 0.63416016 0.6635257 0.66758317 0.6103357 0.64299107 0.6380567 0.6266453 0.60281694 0.6050048 0.5898942 0.6066542 0.558067 0.5530435 0.50250363 0.42969826 0.42969877 0.35823888 0.27950156 0.31062883 0.043612633 0.12909734 0.26301402 0.048070647 0.13767034 0.12799421 0.7042875 0.6099639 0.4229045 0.34756744 0.12625322 0.20775491 0.71324664 0.6360686 0.44346595 0.15090246 0.1411323 0.074223325 0.29714775 0.42836612 0.5261743 0.5280463 -0.0054679066 0.39141196 0.44596258 0.52036023 0.5201975 0.50460845 0.44543517 -0.025860943 0.37197238 0.44085354 0.02485462 0.014590532 0.038030222 0.17132154 0.36666572 0.116607785 0.14683098 0.56572586 0.71901476 0.73568094 0.06379333 0.15558006 -0.076647386 0.44707024 0.49102205 0.75943565 0.7173639 0.1255969 0.27979904 -0.17482504 0.48613214 0.7065948 0.33984542 0.40373933 0.63084364 0.656299 0.4373869 0.27044243 0.03301681 0.4253494 0.46829525 0.4585827 0.5858075 0.4625377 0.42202145 0.3618785 0.22697857 0.14895393 0.0788861 0.38921475 0.43018252 0.42986745 0.37749833 0.6809547 0.66498566 0.67044777 0.65206206 0.65089196 0.3796476 0.37857044 0.34760314 0.11353038 -0.015377365 0.2652841 0.19483882 0.35762873 0.36177358 0.20868495 0.12921184 0.42901233 0.4189325 0.39275122 0.35601354 0.48191476 0.48630774 0.47579694 0.3084235 0.071443945 0.52240473 0.51199675 0.4820461 0.44810268 0.34434038 0.13853107 0.5198023 0.4926572 0.473703 -0.03384868 -0.0029185712 0.10864566 0.0758535 0.069866896 0.1521884 0.17416656 0.18060574 0.1662585 0.1636694 0.18633759 0.37644577 0.68438965 0.31636694 0.59151137 0.736499 0.77785814 0.35203683 0.4510359 0.67752004 0.7580805 0.75946987 0.73909646 0.48175126 0.54100406 0.512562 0.51597273 0.62578547 0.64298993 0.6903906 0.695487 0.49114573 0.51869154 0.5059284 0.4778368 0.39003053 0.5234435 0.5620893 0.581257 0.49388528 0.4624524 0.38664755 0.18833834 0.33532482 0.39260122 0.34996027 0.34405923 0.25872684 0.31984174 0.20425025 0.4459396 0.37010118 0.19211367 0.3988882 0.3420179 0.23663843 0.22867459 0.1269139 0.051492408 0.09452791 0.15162125 0.5634108 0.5857371 0.59943056 0.5399285 0.5862961 0.61342764 0.6012027 0.57348937 0.59448206 0.5848105 0.5624388 0.53396016 0.5021528 0.39265615 0.50685596 0.52303076 0.54934865 0.47924325 0.25696808 0.5381063 0.4699421 0.25006023 0.28819022 0.3598835 0.5094446 0.21872565 0.27044612 0.35395133 0.407434 0.5503705 0.2902809 0.25136083 0.17799959 0.25406095 0.57501423 0.57003087 0.5983253 0.6121135 0.6260932 0.56517833 0.60210866 0.64223254 0.6089426 0.65117985 0.36767673 0.45111072 0.6529765 0.37491176 0.3584686 0.4069894 0.62417644 0.625596 0.28984734 0.30006087 0.3753698 0.5330329 0.5744226 0.6467669 0.6563687 0.6533878 0.6327209 0.6641875 0.69379723 0.6911994 0.6954277 0.543892 0.6065227 0.73185515 0.7186645 0.5352741 0.5637983 0.6948955 0.69712454 0.44974646 0.5073909 0.5741379 0.6452607 0.6675669 0.5233748 0.5994332 0.67413795 0.7067708 0.7227994 0.72119665 0.62764597 0.6521849 0.7014532 0.73593307 0.7406434 0.58421123 0.5858611 0.6734141 0.7125936 0.7172916 0.62715197 0.66224813
SCALARS features_01 float 1
LOOKUP_TABLE default