# vtk DataFile Version 2.0
Really cool data
ASCII
DATASET POLYDATA
POINTS 6217 float
-9.536309 24.940552 20.763157
-9.52589 24.912128 21.075895
-9.524034 25.096432 20.84743
-9.518841 25.071613 21.131216
-8.822508 24.12794 20.205368
-9.043678 24.099874 20.760077
-8.978945 23.97459 21.300306
-8.787085 24.051159 22.00815
-9.069162 24.67551 20.057243
-9.338598 24.689102 20.560228
-9.36667 24.652613 21.414282
-8.989453 24.687902 22.30918
-8.7249565 24.779566 22.657267
-9.118106 25.379242 20.101555
-9.347645 25.343393 20.59016
-9.399483 25.288086 21.564554
-9.098837 25.370672 22.273216
-8.741125 25.52326 22.736536
-9.041024 26.112278 20.610401
-9.165587 26.007055 21.46867
-8.87932 26.177526 22.05753
-8.653712 26.718512 21.27954
-7.5802736 14.171104 19.957537
-7.6075993 14.103286 20.18095
-7.7480254 15.138026 19.223871
-7.783743 14.773754 19.662737
-7.687785 14.50828 20.445011
-7.6953325 14.997592 20.880726
-7.8931656 15.9480915 19.017326
-8.154837 15.801306 19.531483
-8.049279 15.635678 20.378603
-7.850357 15.888158 20.920507
-7.993778 16.469673 19.031141
-8.274525 16.50082 19.511858
-8.228119 16.531586 20.353611
-7.8597164 16.614532 20.993221
-7.881441 17.067518 19.064571
-8.114203 17.22711 19.634077
-8.075659 17.214962 20.329388
-7.7563925 17.291485 20.95202
-7.7687364 17.782835 19.832962
-8.054986 23.445887 20.92022
-8.2319765 23.402771 21.478596
-7.933664 23.405254 21.82403
-8.328404 24.051352 20.069773
-8.415434 23.813635 20.42321
-8.430473 23.593441 21.575062
-8.342924 23.841085 22.122284
-8.036302 24.664621 19.405731
-8.44141 24.778198 19.62048
-8.425825 24.805788 22.805635
-8.410677 25.411732 22.875708
-8.340374 26.068296 19.721199
-8.546231 26.262054 22.358295
-8.170436 26.135803 22.718134
-8.416561 26.918804 20.591864
-8.297097 27.015219 21.320738
-8.106426 26.888437 21.926676
-7.5398383 28.974556 17.993881
-7.6496058 29.056356 19.094238
-7.8406487 28.913805 20.725874
-7.6560187 29.54792 18.601698
-7.930996 29.806116 19.605848
-7.9515243 29.663218 20.600386
-7.8496904 29.417006 21.032839
-7.56945 30.283733 18.861698
-7.8325768 30.106218 19.612782
-7.7960224 30.305428 20.481438
-7.7457795 30.193207 20.927168
-7.6591005 32.67892 25.15331
-7.738302 32.74427 25.456968
-7.7271757 32.867516 26.11017
-7.6946745 33.651848 25.06421
-7.8925433 33.51531 25.615602
-7.774833 33.41401 26.295303
-7.7271395 34.301247 25.64133
-7.7104564 34.23625 26.198277
-6.9053526 13.436581 19.82543
-6.8363066 13.382534 20.289217
-7.0067725 14.008972 19.202173
-7.225554 13.825429 19.654684
-7.2785687 13.775944 20.370214
-6.992646 13.862629 21.070372
-7.2699947 14.595447 19.097153
-7.5185585 14.339251 19.493565
-7.549119 14.292288 20.612848
-7.176069 14.364568 21.244427
-6.898873 14.675097 21.639881
-7.255848 15.600306 18.7932
-7.3688364 15.550872 21.43801
-7.0342875 15.394983 21.764978
-7.392091 16.5644 18.708878
-7.506378 16.496967 21.41787
-6.831791 16.43456 21.901535
-7.506398 17.190794 18.902641
-7.3468413 17.326313 21.262638
-6.881302 17.255161 21.676796
-7.0798073 17.7867 19.12543
-7.479642 17.94326 19.552853
-7.328816 18.111637 20.419817
-7.226774 17.893295 20.98013
-7.554325 23.372519 20.990313
-7.7328415 23.362469 21.772127
-7.498276 24.010859 19.956173
-7.6282563 23.50571 20.538269
-7.5083246 23.807995 22.350729
-7.415879 24.110565 22.709743
-6.6712894 24.970211 12.949985
-6.800187 24.838573 13.578383
-6.881232 24.721693 14.305343
-6.8932204 24.82112 15.420789
-7.6532054 24.688486 22.952652
-6.6875477 25.610275 12.707013
-7.008162 25.681831 13.686985
-7.2419577 25.75915 14.533201
-7.273153 25.66502 15.421375
-7.2928305 25.839708 16.137848
-7.354437 25.498556 23.1774
-6.627596 26.411383 12.560859
-6.911405 26.647045 13.878388
-7.1873775 26.416393 14.492049
-7.4033666 26.537945 15.413495
-7.435795 26.61508 16.561916
-7.1586556 26.506172 17.08046
-7.3756638 26.087023 23.05789
-6.7270355 27.19418 13.757632
-6.8635964 27.555891 14.696533
-7.29785 27.302479 15.646643
-6.7246866 27.246998 17.743477
-7.4852867 27.417542 19.18493
-7.320113 27.280674 22.390512
-6.800089 26.880241 23.00644
-6.861577 28.008425 14.9605055
-6.9744215 28.750624 16.863071
-7.2422886 28.393112 17.643831
-7.448659 28.246525 19.251833
-6.6827517 28.857065 16.568092
-7.4766154 29.44708 17.882908
-7.550236 29.53143 21.439083
-7.1911983 29.435596 21.668959
-7.058288 30.152704 17.799177
-7.30818 30.307957 18.25529
-7.4939327 30.721842 19.236471
-7.2423315 30.085775 21.506762
-7.0754538 30.922422 18.521187
-7.2219963 31.14552 19.386139
-7.2658134 31.10251 20.41086
-6.955707 31.130686 20.953415
-6.958843 31.944798 25.04524
-7.595485 32.264862 25.840895
-7.316577 32.16106 26.075914
-6.6918 31.865248 19.520088
-6.7775397 31.747957 20.404026
-7.5637064 32.733967 24.898779
-7.540961 32.359795 25.38313
-7.358473 32.468132 26.394943
-7.0214205 32.704643 27.006147
-7.3270187 33.677265 24.638355
-7.5290685 33.531223 26.668844
-7.3641176 33.457798 26.875443
-7.3054695 34.29958 24.904732
-7.557735 34.60419 25.648699
-7.4261675 34.51587 26.524029
-7.104791 34.342205 27.007563
-7.0236397 34.854416 25.135834
-7.19485 34.973595 25.632286
-7.3022757 34.851902 26.237074
-6.982121 34.879242 26.788462
-6.4499726 13.333733 19.81762
-6.498238 13.300392 20.479559
-6.2048006 13.313258 20.950035
-6.487496 13.93922 19.090895
-6.575767 13.498175 19.53478
-6.5030227 13.635709 21.209824
-6.0211096 13.8536825 21.707397
-6.504862 14.685306 18.808434
-6.5132513 14.601606 21.895649
-6.464985 15.414744 18.650633
-6.183585 15.661577 22.221384
-6.6556582 16.39992 18.583364
-6.434419 16.559616 22.09197
-6.6046996 17.20421 18.664896
-6.52204 17.94919 19.18072
-6.4964685 18.23354 19.574917
-6.339604 18.434933 20.150616
-6.856047 18.232336 20.91919
-5.789633 22.06903 14.854813
-5.723464 21.974813 15.381224
-5.7729473 22.594841 13.929569
-5.985286 22.713203 14.430304
-6.0137196 22.568054 15.671646
-5.7637587 22.516516 16.129389
-5.801392 23.966476 12.643994
-5.928591 23.878117 13.325524
-6.2275314 23.779163 14.693058
-6.31336 23.873266 15.823096
-6.004897 23.322641 16.479565
-5.837783 23.597496 16.94809
-6.506351 23.92727 20.178703
-6.7741547 23.642353 20.69179
-6.655859 23.503841 21.524942
-6.011125 24.013935 22.377872
-6.010153 24.852049 11.791781
-6.3997746 24.786469 12.64687
-6.4357104 24.498255 15.851666
-6.797911 25.044626 18.990452
-6.4751477 24.704346 23.007895
-5.7580476 25.452026 11.209515
-6.137381 25.645323 11.645675
-6.521588 25.459297 12.398756
-5.932421 25.562529 17.565653
-6.3088455 25.872013 23.485613
-5.799048 26.132486 11.266223
-6.2214837 26.29864 11.821055
-6.4427066 26.488882 12.417924
-6.4274883 26.423231 23.44761
-6.1400285 26.429081 23.603916
-5.8591323 27.146322 11.79904
-6.184834 27.101482 12.34744
-6.3689904 27.603792 13.595859
-5.90798 28.003855 12.951962
-6.1695757 28.269379 13.795374
-6.100895 27.951254 22.466938
-6.0012465 28.837748 14.665196
-5.8626037 29.055439 15.07582
-6.330743 29.398766 16.759628
-6.668735 30.135529 17.231037
-6.6510997 30.375938 17.393955
-5.8354216 31.177593 25.614016
-6.164452 30.848976 17.506683
-6.497071 31.406244 18.537924
-6.669288 31.66932 25.28541
-6.4575596 31.696215 26.461094
-6.084512 32.01415 27.226084
-6.0474358 32.076286 18.960075
-6.345584 32.197475 19.625282
-6.560559 31.946869 20.409416
-5.831657 32.373535 21.295816
-6.827105 32.803177 24.313765
-6.544876 32.39676 24.48078
-6.4557695 32.675808 27.37701
-6.1826277 32.93974 27.67916
-5.9940066 32.64961 20.011766
-6.52831 33.682262 24.35336
-6.078437 33.670452 27.853296
-6.6546702 34.31917 24.695896
-6.4645686 34.084335 27.452108
-6.064819 34.628212 27.82417
-6.402217 34.890587 25.072657
-6.2780695 35.27778 25.62097
-6.4391522 35.46987 26.417406
-6.1193643 35.48979 27.27051
-5.922284 35.288383 27.688347
-5.81923 35.835163 26.14798
-5.935097 35.91685 26.571016
-5.9343867 35.807503 27.138525
-5.5316434 13.311704 19.896883
-5.6020975 13.193317 20.514961
-5.6187434 13.299736 21.191454
-5.5068603 13.876966 19.247108
-5.8253646 13.571222 19.384308
-5.774238 13.5528 21.497736
-5.7828097 14.304548 18.951069
-5.5337405 14.696358 22.446623
-4.7618046 15.090052 23.264038
-5.665499 15.522209 18.762411
-5.196423 15.350655 22.946676
-5.6541934 16.458797 18.843494
-5.3084574 16.17594 22.939247
-5.510123 17.182201 22.47338
-4.926216 17.299051 22.772373
-5.574858 18.06745 19.814577
-5.6889997 18.010864 21.599047
-5.118087 17.726458 22.463762
-4.9186754 21.080734 14.748406
-4.6246142 20.57208 15.480696
-4.88862 21.004456 16.476295
-4.7527633 21.202219 17.149654
-5.0669403 21.773525 13.759358
-5.271344 21.573868 14.388595
-5.233421 21.42374 15.791807
-5.3499975 21.798923 16.441553
-4.891999 21.901405 17.419518
-5.3355846 23.103745 12.952808
-5.4360375 22.362593 13.577427
-5.309206 22.7253 17.157887
-5.3634825 24.149399 11.783188
-5.4138837 23.671415 12.555873
-4.781859 23.509819 22.693766
-5.2715616 24.881346 11.068288
-5.6302 24.644066 11.491418
-5.6196384 25.063215 19.14821
-5.33888 24.878757 19.523531
-5.27152 25.43891 10.941182
-5.91861 25.258518 23.347351
-5.2721543 25.898163 23.655584
-5.340657 26.469742 11.018926
-5.481425 26.28285 23.712555
-5.074615 27.168398 11.168476
-5.44626 27.229542 11.482952
-5.6033287 27.286175 23.451004
-5.0727725 27.213896 23.62104
-5.0364094 27.900932 12.112118
-5.4461036 28.63034 13.276289
-5.630332 27.823507 22.8816
-5.2142463 29.091795 13.698338
-5.5297728 29.233297 15.461178
-4.932731 28.88082 23.099812
-4.9420557 29.608139 15.27389
-5.3960166 30.545017 17.12539
-4.7803917 31.2458 24.358358
-5.342096 30.798237 26.327755
-5.1142726 31.003187 27.009361
-5.532166 31.151258 17.702257
-5.184514 31.65001 22.31347
-5.419268 31.718733 27.458662
-5.18583 31.863834 27.76389
-5.5706515 32.49148 21.254738
-5.042631 32.16143 21.916355
-4.7576895 32.37355 23.772142
-4.8219566 32.38828 28.164803
-4.822549 33.037304 19.05769
-5.449891 32.9913 20.087646
-4.974891 32.852726 20.99414
-5.008725 33.444065 28.171646
-5.497922 34.49864 24.745993
-5.477791 34.4862 28.116947
-5.3752403 35.204456 25.13862
-5.69317 35.601738 27.57547
-5.4541807 35.423275 27.852203
[...]
POINT_DATA 6217
SCALARS features_00 float 1
LOOKUP_TABLE default
0.81049544 0.82327163 0.801051 0.812398 0.8246588 0.84990954 0.8739249 0.8873255 0.8013315 0.8176871 0.85469854 0.8781005 0.8435311 0.75071675 0.7650822 0.80883306 0.8183031 0.7573675 0.7014568 0.7370131 0.7179473 0.6321135 0.79188436 0.7837144 0.80992866 0.79554605 0.75673294 0.7036059 0.8552289 0.8634038 0.7915921 0.69651395 0.8945288 0.9273696 0.87464654 0.7133127 0.9193266 0.96112645 0.90971506 0.76323175 0.96234906 0.7983258 0.82364374 0.79759514 0.7944788 0.81771153 0.8478959 0.850546 0.7415067 0.78067434 0.7984133 0.7195822 0.6331337 0.6702219 0.6212737 0.5352664 0.5283332 0.5481222 0.31577116 0.37762558 0.3789756 0.3815146 0.46640152 0.47064498 0.42374653 0.4195933 0.4715721 0.49555483 0.48694062 0.81845665 0.8214493 0.80072814 0.8988764 0.873452 0.82834125 0.89258313 0.8611783 0.8171216 0.80465597 0.8017124 0.8076407 0.78648365 0.74660474 0.7920191 0.79705346 0.75301254 0.702528 0.6278765 0.7986667 0.6045151 0.5553773 0.84402406 0.61435306 0.49175346 0.8938724 0.66014516 0.5352234 0.89444596 0.9445597 0.91748047 0.7587869 0.75188655 0.7755997 0.6843241 0.74614394 0.7505241 0.7210549 0.40012076 0.3661704 0.3353111 0.2945148 0.68896455 0.43272465 0.3970926 0.37223685 0.33166003 0.3138562 0.53462994 0.4376564 0.39692178 0.3869307 0.36506426 0.33033386 0.32468808 0.49256918 0.3857889 0.3456719 0.32874984 0.19933036 0.07603377 0.37938458 0.34924605 0.2967996 0.2540442 0.2618841 0.25956511 0.20254707 0.3429693 0.39724764 0.3142797 0.3520042 0.38436002 0.44187826 0.44113004 0.3979233 0.43895578 0.47548813 0.45492107 0.7183495 0.76663893 0.7332461 0.41203374 0.432146 0.820597 0.7877729 0.7374053 0.6813437 0.8864439 0.79476845 0.7626029 0.8795798 0.87105083 0.8126091 0.75156015 0.810181 0.8161542 0.80981314 0.7554256 0.8253234 0.7991476 0.7623082 0.7999344 0.8233074 0.74563515 0.66510516 0.7638639 0.5879492 0.7197592 0.43173155 0.7593552 0.43558723 0.8058553 0.8395392 0.8553654 0.8525516 0.78502417 0.32422325 0.3288709 0.27149177 0.30859762 0.32088408 0.31062102 0.3153544 0.29410887 0.30659628 0.29107666 0.29176533 0.23759976 0.5628377 0.65261674 0.66733354 0.4341842 0.41713238 0.39873743 0.26216733 0.44242206 0.45933 0.43911242 0.45926479 0.44116318 0.14978987 0.3444276 0.45886576 0.46464473 0.44312346 0.32901925 0.29942507 0.4186387 0.42114505 0.3690067 0.343175 0.32925123 0.19063595 0.25778794 0.19972351 0.19214283 0.29373854 0.3129212 0.52045614 0.3040682 0.3788452 0.67249286 0.6292404 0.53010905 0.35669318 0.3950377 0.42039883 0.35407534 0.7777164 0.6855303 0.58370256 0.5411478 0.38363397 0.80656314 0.5775506 0.7915448 0.67126626 0.65230495 0.72310567 0.7224289 0.73683834 0.70719147 0.6857873 0.7050165 0.7117996 0.7094301 0.79090464 0.74740976 0.6937416 0.7380668 0.80175436 0.6790074 0.7006221 0.4946707 0.3451595 0.5543033 0.35991943 0.57346874 0.3194505 0.32754138 0.25810856 0.6739986 0.4407217 0.26845592 0.28061712 0.28805315 0.29283747 0.26760694 0.22320536 0.28250483 0.318846 0.30580896 0.24253193 0.2076605 0.22937402 0.25870916 0.32435814 0.25970823 0.24506779 0.37574413 0.38713974 0.30736488 0.29581845 0.40741837 0.3210967 0.23571578 0.43015397 0.24938975 0.36122882 0.3858276 0.23225646 0.19951479 0.27750525 0.2806176 0.19913937 0.24459702 0.14147249 0.05608743 0.13623878 0.1334181 0.20006473 0.50244427 0.47104877 0.26986206 0.15777344 0.46895346 0.4518897 0.34864855 0.2841484 0.06613436 0.43643072 0.2969155 0.3540607 0.33402961 0.46979207 0.5375236 0.6102121 0.5818105 0.6977486 0.6766235 0.68622106 0.7009163 0.6966634 0.6811695 0.60149777 0.57396173 0.67774713 0.4358228 0.4169259 0.5051493 0.4536871 0.38879395 0.27393457 0.4120307 0.2437598 0.22043605 0.41752386 0.20029467 0.34331265 0.19795606 0.18482733 0.14156052 0.17407036 0.24317843 0.25626904 0.17546579 0.2169615 0.27205408 0.19757119 0.04538314 0.105545774 0.16125563 0.34145048 0.36371553 0.095046386 -0.018228576 0.1736605 0.31878865 0.35963407 0.36213583 0.21028884 -0.08204445 0.025947765 0.03681105 0.3331763 0.32301825 0.24707636 0.28813046 0.14746274 0.32592544 0.3280275 0.32812643 0.14135899 0.28370416 0.11507734 0.19551332 0.20200561 0.1257308 0.19596633 0.1828576 -0.093376085 0.07677794 0.100776255 -0.33426806 0.16807091 0.42622644 0.003852386 -0.13263509 0.21692502 0.4365978 0.42791772 0.412181 0.25836855 0.26280227 0.28199327 0.46639872 0.42218512 0.19278938 0.2147487 0.5766041 0.39325953 0.6484853 0.6129361 0.68999994 0.67119455 0.66111255 0.5063385 0.5041594 0.4894594 0.36824703 0.26223284 0.2887148 0.4552955 0.46284539 0.14219765 0.30616987 0.39218557 0.030566692 0.2305717 0.18856564 0.14242019 0.18611619 0.23863904 0.26191682 0.039844647 0.10264037 0.18375172 0.2445125 0.23963785 0.1012915 0.15285924 0.081921384 0.071139485 0.07267997 0.097599015 0.1459589 0.09609929 0.07204501 0.09573915 0.12515832 0.011201292 0.06191181 0.07124922 -0.2147282 -0.021902435 0.3629458 0.36305118 0.08412637 -0.05886323 0.34779364 0.34742293 0.19897364 0.15103763 0.2746267 0.22486314 0.22554485 0.28230566 0.27284837 -0.07076171 0.20482047 0.24894422 -0.04783488 0.12853515 0.033963215 0.004720684 0.0077883564 0.21124512 -0.047257856 -0.09171872 -0.10719815 0.3559291 0.25411817 0.38090366 0.43310714 0.41790327 0.3191946 0.31151772 0.3952011 0.41122743 0.45998394 0.4969692 0.50232613 0.37113234 -0.039272193 0.38542375 0.5377324 0.51451993 0.4202062 0.17529164 0.19213763 0.1658065 -0.070630595 -0.043268383 0.4384458 0.3187374 0.4840955 0.5201626 0.59710425 0.65141 0.654418 0.82416713 0.8766998 0.90541255 0.8113355 0.9299043 0.99385226 0.969761 0.79848295 0.92083085 1.0 0.9957574 0.7716274 0.8544203 0.97588027 0.6466511 0.62968254 0.6132682 0.6111332 0.6109364 0.6059946 0.59596646 0.57497895 0.55653596 0.5466937 0.51347464 0.35521674 0.4190181 0.44839978 0.4556125 0.36499056 0.47680908 0.49073595 0.4833954 0.45086545 0.1722669 0.07139947 0.47275218 0.4487901 -0.11008148 -0.15157498 -0.0014229119 0.32641613 0.34130967 -0.043381475 -0.18801402 -0.038973883 0.15668881 0.2218247 0.35910517 0.41090253 0.17711934 0.12031548 0.26581192 0.38968474 0.4201922 0.15365782 0.19583601 -0.028087378 0.21906725 0.30056503 0.37471795 0.41158724 0.043049224 -0.08938483 0.05392273 0.140695 0.27179325 0.35399836 0.37114394 0.19087873 0.13130102 0.067554176 0.031326678 -0.40217575 -0.17782372 -0.2709566 -0.048862193 0.072993755 0.17755511 0.27844763 0.3114576 0.18290621 0.15326385 -0.53258926 -0.23845237 -0.15241349 0.06302664 0.16249532 0.19277495 0.15732685 -0.12622887 0.29729635 0.2086416 0.16162725 0.3193718 0.20064309 0.23536488 0.18092024 0.14069737 0.1829292 0.20502877 -0.16019556 -0.22726327 0.22836956 -0.21616854 -0.13174042 0.3232156 0.2765202 0.14596759 -0.0063244626 -0.05417137 0.33871758 0.20787609 0.050432656 0.017366633 0.060484227 0.11645059 0.22911796 0.29301918 0.14958586 -0.040390372 0.37364268 0.49085796 0.3688187 0.5287303 0.54729956 0.51549345 0.53699136 0.48721173 0.41164607 0.32869226 0.25833708 0.20882404 0.14926928 0.030874273 0.06007038 0.064126156 0.241112 0.7315295 0.7418434 0.74200153 0.65325916 0.7665037 0.78598934 0.80454075 0.82762897 0.648841 0.7135701 0.899143 0.62021565 0.67135227 0.9373988 0.6317333 0.7642051 0.9191267 0.9086281 0.7487731 0.64515376 0.6341071 0.6644838 0.63988185 0.60731995 0.5640445 0.6654973 0.65746796 0.6309686 0.6083434 0.5652468 0.6413512 0.63415384 0.5766704 0.5610686 0.6006081 0.5754813 0.47510245 0.49038202 0.5374847 0.5153156 0.5013794 0.4700837 0.39680263 0.43595254 0.32318914 0.2528807 0.3438791 0.34562534 0.31851816 0.20116967 0.25314966 0.34750223 0.38159505 0.41196996 0.41643643 0.24311662 0.2497864 0.2098137 0.10632515 0.0051620603 -0.14633475 0.060222037 0.36767948 0.20633125 0.23167148 0.22658779 0.21255685 0.13611344 -0.08396202 0.26914364 0.18151566 0.19914922 0.19057664 -0.20624028 0.121120006 0.3796422 0.0795431 0.41815123 0.4057544 -0.07579515 -0.050106514 0.41074157 0.39466804 0.12841082 0.055090852 0.33452305 0.33632705 0.22884986 0.20027076 0.15126784 0.093297556 0.1710146 0.2622459 0.30100566 0.2782209 0.23693389 0.2116592 0.19560437 0.2701125 0.27750966 0.2606901 0.22111781 0.24677841 0.17014143 0.19749962 0.17110401 0.071343005 0.13291673 0.18237394 -0.18323705 -0.14305091 0.28522325 -0.07090956 0.37018847 -0.07611941 -0.06410925 0.4206809 0.7282265 0.7380328 0.7237468 0.42319506 0.38841853 0.26673794 0.10340824 0.21090496 0.7489312 0.7334875 0.7050757 0.36782944 0.29025483 0.21045801 0.1733596 0.3078879 0.72424066 0.6885394 0.683922 0.23918854 0.3638422 0.043984354 0.49345052 0.53126556 0.0051770955 0.51976246 0.47142026 0.39123493 0.34081838 0.29468876 0.23425108 0.20530719 0.10489861 0.14838023 0.31301498 0.26678133 0.19488025 0.2175538 0.38907057 0.38916582 0.29399604 0.3595447 0.44829315 0.5006325 0.7079625 0.73937416 0.72997683 0.579375 0.66077405 0.73490626 0.7074272 0.6775104 0.51756793 0.58199495 0.71549165 0.70819396 0.49272504 0.7702077 0.4146146 0.44413754 0.78499043 0.48670733 0.5533886 0.78718877 0.5525245 0.6951531 0.74514216 0.73242366 0.6363598 0.6309916 0.5776815 0.6194216 0.6570183 0.5638279 0.4986294 0.50600684 0.6509973 0.4916789 0.44503698 0.5601125 0.562192 0.44524038 0.343562 0.5398613 0.22564296 0.20965596 0.33917966 0.3152372 0.39611548 0.063236594 -0.027450368 -0.12056787 0.18696544 0.24278682 0.30607823 0.31162828 0.29240176 0.26662293 0.23912387 0.21220851 0.009098098 -0.008687243 0.13310128 0.26821306 0.27911443 0.24876088 0.20120102 0.17593835 0.21902895 -0.14667104 -0.19321938 -0.14331925 0.15894273 0.25758573 0.2019059 0.037565358 0.16351797 0.20503989 0.10412381 0.15555172 -0.11517716 0.24157459 0.31259406 -0.21512794 -0.17472257 0.33904806 -0.18985447 0.29640114 0.28460184 0.20457314 0.062309053 0.29271892 0.2968232 0.27217233 0.20411375 0.2550914 0.25254214 0.18662928 0.22368357 0.2165804 0.161444 0.09927776 0.17014624 0.03212177 0.0728794 0.18007648 0.149125 0.0887366 0.3511849 0.67219496 0.68477094 0.6953354 0.46120697 0.6829089 0.71213615 0.68097067 0.46086735 0.4253276 -0.020763636 0.72008693 0.67764163 0.65761805 0.4148745 0.34230244 0.015124649 0.63230956 0.6659707 0.65654206 0.63735384 0.28776157 0.23414686 0.26125494 0.052310586 0.5529386 0.61918306 0.6270608 0.6432078 0.27609074 0.3270301 -0.0034957752 0.0087002665 0.44404393 0.4271098 0.41683936 0.26405555 0.15984847 0.134559 0.27397227 0.25152105 0.05321291 0.15211506 0.42103225 0.28346315 0.41217494 0.5189031 0.49962384 0.502802 0.5455946 0.593877 0.6968187 0.73239297 0.7171811 0.56523824 0.6410931 0.64044213 0.5043216 0.4578701 0.5419255 0.30324796 0.6336963 0.31036395 0.7020711 0.46962953 0.6239195 0.6557593 0.6981384 0.600958 0.58829194 0.5777411 0.58398783 0.5600055 0.39795607 0.47855026 0.69158924 0.43808538 0.37125027 0.4703278 0.63607883 0.6523107 0.6413997 0.6062604 0.3314278 0.38452113 0.39723337 0.41275787 0.5593116 0.54853714 0.58312404 0.6104967 0.57805914 0.29195374 0.22412637 0.3791225 0.38929147 0.34276825 0.30267978 0.5775113 0.60646534 0.465412 0.46859008 0.5076207 0.4981106 0.44775757 0.21050698 0.17510498 0.08060345 0.039782077 0.21974897 0.32810393 0.3649462 0.32822436 0.19600669 0.58213174 0.59989524 0.59068197 0.3757195 0.36454222 0.3266279 0.34493598 0.27475914 0.21260947 0.17808115 0.14847514 -0.028779624 0.087702446 0.24131703 0.56361777 0.5811009 0.5779773 0.20311502 0.24491332 0.29774526 0.2676885 0.19735298 0.19937992 0.11795548 -0.0075383037 -0.11094986 -0.121272504 0.017723285 0.23161975 0.18402039 0.44510168 0.53362817 0.558146 0.25176293 0.3111824 0.28767306 -0.08771248 0.44065902 0.30225435 0.2866451 0.2618 0.20374896 0.26522586 0.26419663 0.013960575 0.05140012 -0.15852185 0.12093796 -0.3202985 -0.25484088 0.24777034 0.20427553 0.13942131 -0.03697973 -0.34275895 0.15503015 0.290377 0.2547232 0.18254584 0.51290005 0.2937179 0.3884913 0.5688691 0.5985646 0.80178106 0.7818888 0.7478707 0.27098656 0.18591173 0.5532839 0.8048252 0.8272484 0.8104976 0.7524489 0.19616258 0.1712229 0.79470223 0.80470914 0.7819885 0.74402726 0.097206764 0.70932806 0.019418046 0.2335767 0.26159996 -0.05548445 -0.16332774 0.22731867 0.25981912 0.015420593 0.20655017 0.23701915 0.018347755 0.5888696 0.62512726 0.6684795 0.41243133 0.4153267 -0.023221366 0.54633445 0.6041238 0.63257885 0.663574 0.47803658 0.6551085 0.48260283 0.47096908 -0.15450716 0.61446893 0.4453404 0.40392724 0.620823 0.58725 0.23956811 0.2279054 0.06280954 0.551347 0.5655805 0.5859872 0.59028584 0.25938106 0.31561285 -0.05527654 0.41459015 0.3417421 0.35173786 0.29832253 0.012923442 -0.008089617 0.3163224 0.29966193 0.22791865 0.22775915 0.18903668 0.27926406 0.17371005 0.1785528 0.09214969 0.03337676 0.15504691 0.40329146 0.35708302 0.5255525 0.5028265 0.6098616 0.6930444 0.6859133 0.60769117 0.6844263 0.68664193 0.6593078 0.5938972 0.5465379 0.45684123 0.4341895 0.4249503 0.32748833 0.37834692 0.2987702 0.57591206 0.46682265 0.45164552 0.31499386 0.63811845 0.49651107 0.4828881 0.39961392 0.30836743 0.5817529 0.6132724 0.5020222 0.44286504 0.48417264 0.43148643 0.49238294 0.5155768 0.7072822 0.74565995 0.30967462 0.5047387 0.6142419 0.63044465 0.66301155 0.6530916 0.26862502 0.42815226 0.4980142 0.5564694 0.5340085 0.51553655 0.49748182 -0.01639374 0.35311693 0.31146738 0.38306752 0.34624702 0.2578468 0.12873387 0.34016806 0.5220312 0.57167625 0.60276127 0.6016891 0.48358467 0.42833403 0.035068087 -0.16172937 -0.0225024 0.13606241 0.25444496 0.19259776 0.31217852 0.25214794 0.43832076 0.50583154 0.60414624 0.58633804 0.56596375 0.40236086 0.34427077 0.26400587 0.032330357 -0.2648722 -0.18589321 0.029621337 0.37832397 0.4668594 0.55848086 0.27685535 0.2433298 0.19083516 -0.27250502 -0.28842238 -0.20676178 -0.04971814 0.38094908 0.53305864 0.53139836 0.2461294 0.2136751 0.14651468 0.28324062 0.4259315 0.5013279 0.12353108 0.2199002 -0.1766402 -0.034376487 0.22714193 0.38385394 0.08277626 -0.19760293 -0.029597655 -0.22333573 -0.29701483 -0.18310905 0.2278154 -0.279436 0.36878684 0.05791194 0.25224054 0.5429193 0.68473756 0.63952965 0.13955468 0.63213694 0.6445378 0.7309785 0.7503834 0.6731775 0.56738305 0.5272316 -0.12360881 0.16408342 0.3478077 0.45470864 0.56886524 0.63825405 0.739884 0.11960809 0.31412274 0.48023826 0.5520697 0.62038076 0.7392733 0.73506916 0.48710325 0.07904525 0.6038805 0.4924748 0.40877527 0.29501492 0.23329481 0.08358039 0.032761976 0.27900374 0.07003796 0.24253513 0.17236036 0.17419842 0.17946468 0.18883005 0.21320258 0.60807157 0.68056333 0.6743261 0.66280127 0.40018708 0.51042426 0.6565622 -0.14012703 0.5587191 0.4535441 0.51716083 0.37882674 0.19350271 0.4828651 0.16160096 0.11548079 0.25198317 0.24059677 0.1912632 0.29782033 0.23803309 0.14888322 0.21577877 0.078062534 0.031029053 0.026856516 0.028691247 0.4867139 0.46481866 0.57960874 0.5145365 0.6513587 0.7246078 0.71175957 0.6156109 0.59825355 0.63310254 0.58638626 0.53306836 0.51632154 0.40549454 0.23453365 0.29141733 0.25137457 0.22420676 0.43903363 0.47922838 0.51019216 0.50998855 0.47497115 0.50176895 0.5037659 0.20342413 0.28959554 0.39850485 0.46779782 0.19681123 -0.031207696 0.51370126 0.651644 0.7100059 0.13604318 0.50950897 0.49248534 0.630085 0.6266751 0.45218015 0.3085759 0.26033586 0.32156047 0.39788905 0.47861928 0.51089656 0.5594048 -0.07879739 -0.16559407 -0.123808764 0.3115421 0.36519113 0.2485975 0.13006696 0.30595914 0.5673051 0.5826973 0.49630582 0.46945494 -0.2741396 0.2737195 0.22584313 0.5797403 0.5569223 0.37353462 -0.39684188 -0.15725818 0.5276052 0.32059485 0.28884414 0.44931605 0.2860775 0.25928986 0.22057253 0.43016267 0.23686583 0.200322 0.14701775 0.29967654 0.42826325 0.13133757 0.08336534 0.0156953 -0.004108783 0.039096337 -0.0752445 0.14516981 -0.29276514 -0.008535519 -0.2887374 -0.22528584 -0.41164476 -0.20504604 0.06623091 0.06000279 -0.14846727 0.4181552 0.037362125 -0.03150797 -0.10158054 0.5083429 0.53280246 0.54866785 0.017059881 -0.09135081 0.6396282 0.589288 0.6347548 0.6449148 0.5221262 0.5865866 0.21550068 0.35122564 0.49021867 0.5743761 0.6183423 0.48874807 0.5579246 0.29983038 0.46259868 0.50433946 0.31650755 0.013865732 0.11859766 0.30599922 0.11144262 0.14341316 0.17111577 0.17992376 0.16631718 0.16937058 0.46852037 0.59900135 0.67947626 0.6206835 0.037614927 0.24238558 0.5824131 0.38375306 0.48453817 0.2479018 0.33370286 0.072140396 0.26931024 0.05566735 0.1467531 0.104538195 0.071553014 0.0014611185 -0.00043438934 0.27996543 0.30040434 0.45995218 0.5587542 0.03797942 0.45471656 0.5382999 0.53396493 0.17046331 0.5334217 0.59109825 0.5869493 0.5190865 0.5581847 0.6678101 0.70779365 0.4905844 0.21667121 0.34984025 0.35193458 0.34887636 0.33763644 0.1797696 0.410084 0.17710388 0.42861745 0.36794198 0.76051825 0.71659064 0.46463472 0.5294902 0.79185027 0.7303924 0.69461024 0.5712664 0.492274 0.42054543 0.4968654 0.5603097 0.46417695 0.49048477 0.44441032 0.34900784 0.46832415 0.2252169 0.2460134 0.369932 0.42837313 -0.2882867 0.4471525 0.68121636 -0.21690312 -0.2733034 0.6170978 0.7319859 0.011417665 0.3131727 0.14931208 0.22657828 0.24058264 0.2958729 0.33003372 0.33900595 0.41642398 0.5141106 0.5818845 0.37451172 -0.18693462 -0.31099814 0.124136046 0.5384804 0.5107506 0.34856978 0.44061175 0.32904342 0.2826379 0.25719634 0.24529758 0.25209895 0.18223631 0.2013922 0.12470279 -0.16000831 0.21740496 -0.20287985 -0.0061410666 0.06307411 0.21521834 0.22052434 0.05288476 0.0888199 0.026517197 0.2684749 0.028580904 0.428691 0.4599229 0.305717 0.12411765 0.5861883 0.45147002 0.44949773 0.5844135 0.57082796 0.4568321 0.40219456 0.5085119 0.56448996 0.43899843 0.3021918 0.40398633 0.23716916 0.19833785 0.23346102 0.111734204 0.09179621 0.120716184 0.17793551 0.21160212 0.13249767 0.1687465 0.13708003 -0.19349556 0.47376657 0.52513134 0.64229757 0.5996126 0.59900796 0.094181426 0.024691299 0.05097697 0.52538925 0.46509415 0.40227395 -0.016119502 0.28144976 0.0373246 0.23936303 0.041665304 0.0019139089 -0.09939265 0.23769835 0.30024403 -0.0122040585 -0.029461965 0.23670211 0.5725188 0.20478565 0.2297603 0.2656756 0.41037083 0.49516442 0.57784426 0.60755247 0.64365804 0.27287227 0.2631173 0.21844286 0.14156163 0.2740597 0.27071697 0.38697055 0.62234294 0.4695901 0.42585063 0.43929255 0.44516277 0.5310576 0.4599196 0.23442869 0.157301 0.37457544 0.19275576 0.45212743 0.4296638 0.32145518 0.7816617 0.46113962 0.44980866 0.5782361 0.57987064 0.8155595 0.78419363 0.73307073 0.4343588 0.39979088 0.68431056 0.8097723 0.74738693 0.6354842 0.3220278 0.28415185 0.708382 0.5942668 0.50448346 0.30207768 0.40144497 0.26528528 0.18631439 0.25926995 0.31888384 0.5916054 -0.119967 -0.11812344 -0.20919348 -0.34687257 0.30512512 -0.068635136 -0.1028474 -0.23568885 0.087706864 0.6414143 0.04883945 0.07348332 0.11902392 0.13866633 0.15938133 0.2066538 0.2037549 0.0013516098 0.3613793 0.36891332 0.51347864 0.47158748 0.16633004 0.2919466 0.4736871 0.41424972 0.10008098 0.3741473 -0.09705774 0.21243152 0.15263611 0.15119195 0.11532346 -0.059268944 0.14084288 0.09279854 0.38548678 0.36196092 0.20865446 0.11988822 0.4257625 0.36631477 0.016359534 -0.09039502 -0.07766096 0.11915362 0.4694186 0.35716075 0.10533729 -0.08173004 0.16658628 -0.10775942 0.11658125 0.3138097 0.3936363 0.3750689 0.3613084 0.3905763 0.374906 0.19286485 0.28631458 0.31649432 0.2862541 0.078285456 0.14704168 0.17530285 0.22072524 0.13739318 0.32783154 0.25187534 -0.020014346 0.41137934 0.27829728 0.175899 -0.4307116 0.4406748 0.5284889 0.5521045 0.29828542 0.08546755 0.00603726 -0.04914421 0.07680211 0.07865244 0.14422004 0.31252196 0.45935863 0.50772595 0.08368319 0.3735919 0.15162359 0.18308058 0.19782907 0.29924974 0.06917829 0.09351027 0.36398906 0.10156406 0.10780312 0.07352258 0.29504144 0.06570408 0.13484827 0.4554083 0.47065496 0.119773954 0.11393526 0.088765234 -0.088992104 -0.06569863 -0.10294243 0.20160887 0.604141 0.5869608 0.30347905 0.3234677 0.13908765 -0.031468667 0.12533805 0.11471118 0.3769851 0.6417179 0.32281554 0.30845058 0.24130337 0.19040585 0.2698815 0.3164242 0.24231488 0.599121 0.6893164 0.7170156 0.35689384 0.38624382 0.4025839 0.5640522 0.64344823 0.12585196 -0.0011003092 0.