# vtk DataFile Version 2.0
Really cool data
ASCII
DATASET POLYDATA
POINTS 6293 float
-24.659712 49.82441 4.9482207
-24.773687 49.72001 5.58715
-24.795198 49.83614 6.1909456
-24.751013 50.130096 6.990225
-24.812283 50.554638 4.720583
-25.200106 50.72184 5.6024537
-25.333834 50.864635 6.636691
-25.076105 50.813423 7.2022943
-24.779099 50.886913 7.624508
-24.647516 51.11049 4.2863746
-24.751732 51.441475 4.650166
-25.304735 51.440514 5.895563
-25.413595 51.497593 6.5231977
-25.27118 51.47448 7.142379
-24.795214 51.42832 7.683367
-24.793814 51.91041 5.020827
-25.04427 51.968655 5.718148
-25.158697 52.096363 6.5791965
-25.117 51.989685 7.0840015
-24.044626 49.28121 4.8920546
-24.195389 49.156937 5.491289
-24.184631 49.21747 6.1089616
-24.149553 49.945236 4.2871184
-24.346083 49.631252 4.7621794
-24.513865 49.403965 5.6341176
-24.466885 49.445152 6.1828356
-24.468029 50.1308 7.1480193
-24.204447 50.727245 4.0329404
-24.52656 50.385612 4.374522
-24.010777 50.491825 7.7039666
-24.300205 51.409454 4.1152205
-24.571764 51.393974 4.340973
-24.296047 51.470524 7.8910103
-24.11838 51.901424 4.1081686
-24.427408 51.96863 4.6264935
-24.47758 52.35686 5.392284
-24.406902 52.34942 7.3132596
-24.095097 52.057693 7.8365836
-23.895603 52.78336 5.291961
-24.313261 52.700027 6.457382
-23.55683 48.989197 5.0179796
-23.52329 48.883484 5.608089
-23.004677 48.768764 6.24004
-22.97215 49.202736 7.576598
-23.38256 49.82042 4.064102
-23.474329 49.390728 4.429647
-23.46039 50.58793 3.740697
-23.51369 50.748425 8.065443
-23.457531 51.53975 3.7595706
-23.69671 52.093105 4.1219845
-23.64637 52.486023 4.5819387
-22.676374 52.376152 8.238281
-23.355865 52.766117 4.6841846
-23.65051 52.8143 5.307595
-22.764431 53.661938 6.4685955
-22.892786 53.976387 9.067924
-22.703682 54.614563 6.805327
-23.049316 54.696945 7.68671
-23.12232 54.527054 8.410945
-22.726013 54.536144 9.307305
-22.987299 54.87279 7.90219
-22.815052 55.16896 8.426865
-22.790049 54.96505 8.997381
-22.295843 48.257587 6.5568023
-22.216848 48.324528 7.243979
-22.475677 49.07877 4.5690775
-22.686586 48.657265 5.588982
-22.15729 48.774975 8.127888
-21.711378 48.488792 9.122275
-22.398619 49.65352 3.9479265
-22.337465 49.474804 8.336828
-21.765806 49.26825 9.305353
-22.128483 50.78916 3.463162
-22.312414 50.340622 3.5868323
-22.376287 50.477642 8.343226
-21.79576 50.5639 9.051562
-22.420841 51.577576 3.6077776
-22.175125 51.843018 8.839142
-22.281069 52.407684 3.8080099
-21.875078 52.61536 9.594975
-22.223513 53.148895 4.070864
-22.247908 53.557697 4.368712
-22.54394 53.25898 9.36092
-22.17599 53.64214 9.993956
-22.356487 53.665455 4.769952
-22.199097 54.08128 5.3678803
-22.42917 54.504387 6.5657983
-22.440145 54.561657 9.55941
-22.065771 54.358734 10.054183
-21.989847 55.371204 6.852766
-22.491451 55.426704 7.7201996
-22.273424 55.3437 9.269454
-21.973759 54.940094 9.845027
-22.039024 55.835308 7.7052703
-22.149107 55.85077 8.407581
-21.96302 55.78853 9.184949
-20.73013 46.89991 7.567218
-20.767536 47.148956 8.888867
-20.83347 47.25059 9.336961
-21.044796 47.984528 5.643768
-21.350351 47.73464 6.4978313
-21.55654 47.756916 7.430284
-21.278135 47.726364 8.653081
-20.614809 47.453568 10.6537895
-21.886152 49.27178 4.1098533
-21.517326 48.812607 4.6690702
-21.446333 48.89422 10.015869
-20.703775 48.280067 11.009786
-21.47964 49.77663 3.828981
-21.568724 49.493187 9.652779
-21.099821 49.409294 10.191274
-20.529087 49.269592 14.221046
-20.582344 49.554523 15.478587
-21.736895 50.859146 3.4680595
-21.505016 50.47964 3.5327537
-21.094076 50.19646 10.01126
-20.790876 50.721546 14.583129
-20.847195 50.532005 15.447594
-20.708542 50.76412 16.067719
-21.572004 51.5428 3.4802096
-21.782959 51.33664 3.5468404
-20.807037 51.421787 14.762005
-20.878357 51.3797 15.497929
-20.720291 51.412415 16.01626
-21.632639 52.555447 3.621008
-21.255095 53.109974 10.588171
-20.737228 51.80739 15.026446
-20.721327 51.90401 15.408633
-20.661457 51.828846 15.882438
-21.417599 53.30884 3.8455014
-21.2561 53.43584 10.701356
-21.288733 53.98459 4.291495
-21.403849 54.10702 4.581475
-21.644604 54.631756 10.266957
-21.145113 54.318993 10.600522
-21.35423 55.151527 5.8538313
-21.504929 55.405056 6.3645296
-21.264256 55.502598 9.819621
-21.40776 55.77462 7.013336
-21.488184 55.978333 7.588913
-21.600609 56.1181 8.332124
-21.542555 55.937344 9.163809
-19.587694 44.120434 14.943667
-19.569187 43.970974 15.924044
-19.60512 43.9569 16.012526
-19.58218 44.699387 13.774729
-19.650381 44.65674 14.480013
-19.566408 44.13356 15.406757
-19.66118 44.63773 16.325333
-19.596445 44.697876 17.097223
-19.804579 46.19905 6.6405663
-19.561983 45.5411 13.2155075
-19.739658 45.242847 14.153558
-19.703362 45.320305 15.877714
-19.736383 45.107002 16.390491
-20.014463 47.141117 5.8110433
-20.415531 46.643593 7.5643797
-20.515055 46.881474 9.636877
-20.305668 46.859203 10.331184
-19.837137 47.143997 11.281657
-19.547852 46.36845 15.831165
-20.087578 48.095078 5.3293633
-20.307766 47.79672 5.5110984
-20.460306 47.739143 11.041411
-19.557034 47.650043 13.478266
-19.935497 47.84208 14.540961
-19.796568 47.859287 15.640358
-20.268627 49.212505 4.4134226
-20.25281 49.08467 4.6310945
-20.369577 48.42206 11.287814
-19.70263 48.35602 12.344378
-19.835875 48.573154 13.702599
-20.257198 48.78347 15.112759
-20.730448 49.710644 3.963282
-20.314264 49.076912 11.373474
-20.092552 49.235256 12.657297
-20.42915 49.992077 13.872725
-20.491205 49.35842 14.610706
-20.47925 49.586704 15.455378
-20.305044 49.684784 16.060177
-21.013733 50.541325 3.6331944
-20.119316 50.441345 13.129792
-20.34993 50.60099 13.728214
-20.462996 50.81251 16.461763
-20.221773 50.774395 16.712074
-20.629782 51.616795 3.782236
-20.319962 51.24419 10.319376
-20.293692 51.89634 10.528875
-20.117846 51.46701 13.5661955
-20.43379 51.40231 16.446997
-20.061556 51.549435 16.725988
-20.881811 52.45288 3.6280737
-20.718716 53.104942 10.720688
-19.839354 52.39705 13.801139
-20.432732 52.30543 15.4182825
-20.257437 52.085403 16.190943
-20.620022 53.413155 4.013581
-19.777786 53.023895 14.759023
-19.78014 53.07191 15.427325
-19.719284 52.953964 15.970153
-20.95017 53.804623 4.188559
-20.67961 54.097595 4.553313
-20.750887 54.02209 10.8532505
-20.556759 54.827652 5.3421702
-20.56818 55.293056 5.8718653
-20.414309 54.96771 10.293066
-20.545038 55.859535 6.6846213
-20.60044 56.035286 7.2782106
-20.690248 56.094627 9.066491
-18.623487 42.101955 7.575074
-18.653973 42.129444 8.866609
-18.599178 42.16926 9.265692
-18.717703 42.089993 16.713312
-18.737589 42.549908 6.821271
-18.795511 42.509125 7.6963787
-18.93278 42.70003 8.398309
-18.73053 42.437702 9.552618
-18.690403 42.797287 10.212667
-18.885662 42.954887 14.62323
-18.879196 42.60523 15.71132
-19.140648 42.925346 16.39174
-18.911854 42.636642 17.621342
-18.736917 42.6444 18.071959
-18.64907 42.676224 19.404617
-18.68301 42.848064 20.692043
-18.597935 42.44812 21.304796
-18.567669 42.897095 21.788322
-18.93736 43.377346 6.800555
-18.952723 43.248383 8.375255
-18.704557 43.306107 10.433115
-19.0177 43.921696 12.943633
-19.207066 43.82798 13.519262
-19.232826 43.540276 14.637652
-19.421194 43.628643 15.731693
-19.343012 43.44648 16.413214
-19.356335 43.666954 17.434973
-19.051403 43.419376 18.239738
-18.782417 43.144558 19.33274
-18.812881 43.952736 20.54607
-18.689064 43.548733 21.475096
-18.590565 43.34008 21.830559
-19.048609 44.97323 6.221858
-19.079464 44.771748 6.66596
-19.234781 44.62807 7.2623663
-19.048433 44.112946 8.346119
-18.726803 44.632595 10.045602
-19.024424 44.307354 12.600552
-19.499874 44.58537 13.579996
-19.484694 44.21774 16.573427
-19.38582 44.18578 17.516842
-18.943836 44.519608 18.394117
-18.749352 44.627632 20.502869
-18.666224 44.27122 21.420113
-19.135853 45.830097 5.969268
-19.369999 45.68885 6.461644
-19.209293 45.463093 8.536477
-19.093382 45.19115 12.610396
-19.459396 45.32815 13.279475
-19.50035 45.76843 17.14377
-19.322886 45.04697 17.950575
-18.564201 45.020077 21.380259
-18.969276 46.35816 5.6909423
-19.28118 46.835087 12.605002
-19.111612 46.80035 14.059006
-19.419975 46.22863 15.213999
-19.263897 46.125107 17.239437
-18.879827 47.84854 5.267199
-19.31861 47.844303 13.355615
-19.298006 47.827503 16.252666
-18.956305 47.563435 16.614798
-19.75422 48.898163 4.7062573
-19.459265 48.524567 16.33916
-19.099047 49.116367 16.663193
-19.609951 49.576664 4.310999
-19.42746 50.286327 4.3514657
-19.409819 50.61667 17.20064
-19.913248 51.670662 4.1373644
-19.334106 50.85852 12.499207
-19.31912 51.296566 17.190851
-19.713514 52.694458 4.4160604
-19.95162 52.245415 10.290121
-19.307547 51.90662 10.639293
-19.50378 52.476406 16.539913
-19.273413 51.984116 16.988186
-20.048618 53.290718 4.342347
-20.035334 53.269833 10.725155
-19.226551 53.244267 13.878105
-19.347595 53.43535 14.66626
-19.406178 53.397507 15.625509
-19.29897 53.113007 16.198761
-19.777817 54.11985 5.022301
-19.718937 54.01104 10.719754
-19.003239 53.764038 15.4011
-18.828857 53.706654 15.931563
-19.311375 55.319416 5.9810853
-19.807741 55.536274 9.617968
-19.927456 54.911705 10.248833
-19.422241 55.662746 6.2550697
-19.299706 56.064796 7.056826
-19.775583 56.17543 7.999888
-18.609226 57.179443 10.6401415
-18.55733 57.426353 11.2118025
-17.89912 41.271942 7.6569343
-17.830418 41.197746 8.565999
-17.977028 41.331383 8.941171
-17.675558 41.117622 19.679739
-17.80812 41.21323 20.663769
-17.758898 41.26702 21.091578
-18.019024 42.106186 6.0025373
-18.143162 41.91544 6.488278
-18.28728 41.706913 7.5453086
-18.201895 41.502136 8.335245
-18.142403 41.653267 9.223253
-17.951864 42.009827 10.24586
-17.955666 42.182747 14.646693
-18.227327 41.99914 15.75354
-18.249737 41.835007 16.514103
-18.146994 41.67709 17.304592
-18.568073 42.24789 18.355303
-18.186209 41.749294 19.024986
-18.202646 41.699688 20.760818
-18.277395 41.85421 21.339119
-18.109953 41.91888 21.88085
-18.16726 42.59431 5.8095403
-18.470196 42.340363 6.3547297
-18.492529 42.3511 10.183414
-17.989923 42.71628 11.230328
-18.205181 43.283928 12.686584
-18.398838 42.888573 13.808976
-18.623367 42.768795 14.530389
[...]
POINT_DATA 6293
SCALARS features_00 float 1
LOOKUP_TABLE default
0.7094897 0.69479257 0.70933616 0.68886966 0.7389897 0.80854905 0.8420536 0.76041746 0.6702384 0.6943476 0.67133236 0.824545 0.86541426 0.8087623 0.6892742 0.63678443 0.7264794 0.83146346 0.81382215 0.6406504 0.6042601 0.5607257 0.7119545 0.6908407 0.64299726 0.60961163 0.62171173 0.7043234 0.73462266 0.4834812 0.65114594 0.6670916 0.5603682 0.5911602 0.60201114 0.58548397 0.7164844 0.5347507 0.46790874 0.6344992 0.5844002 0.5343879 0.44888866 0.3321582 0.65266657 0.63243204 0.67205715 0.3005854 0.60993373 0.55356807 0.5047841 0.13921505 0.45639277 0.43579414 0.31060213 0.54500407 0.4314369 0.5451551 0.5953588 0.5995643 0.58041245 0.6252152 0.62505364 0.3452977 0.2988188 0.5052873 0.46224916 0.23815216 0.24183051 0.5069047 0.17251621 0.17512785 0.48847258 0.5030421 0.06884806 0.05330548 0.52261114 0.061705742 0.51766247 0.3354958 0.48561588 0.44073212 0.44151527 0.5319755 0.38720763 0.35372892 0.40151 0.5960176 0.58228034 0.46361226 0.56618583 0.63057446 0.6081199 0.55992544 0.6312782 0.6462194 0.14009793 0.2144182 0.25079152 0.26279402 0.26779872 0.23131545 0.25444543 0.21276928 0.42658687 0.34689432 0.21340685 0.13647388 0.41083175 0.16484508 0.1805235 0.3271818 0.46520978 0.45851684 0.42926386 0.118886024 0.53232527 0.5521687 0.5572829 0.47652742 0.4780965 0.5571447 0.56176853 0.55545735 0.5277324 0.41882443 0.55555284 0.55240667 0.54779804 0.5164053 0.46448922 0.466542 0.43994415 0.59456676 0.5551287 0.38373128 0.41256556 0.63005257 0.4542982 0.5230404 0.62112916 0.65427196 0.31499028 0.30264693 0.30167335 0.2832806 0.28550935 0.3034439 0.2774367 0.28559375 0.11191857 0.18522456 0.23428412 0.2591986 0.26922178 0.11356325 0.124784485 0.21461882 0.2111167 0.041632265 0.19313882 0.16673124 0.16441718 0.1441066 -0.045620732 0.13358618 0.24398758 0.31748766 0.2948927 0.06419151 -0.13401505 0.11075635 0.33031043 0.37008315 0.023699254 0.028531566 0.39508772 0.3748114 0.46511936 0.48572004 0.39731103 0.367272 0.44446856 0.54043055 0.51629555 0.42733085 0.15372711 0.19941607 0.44589877 0.537011 0.506174 0.5150163 0.3560791 0.47072685 0.53512615 0.52184874 0.49652869 0.48849 0.4778546 0.46721828 0.48112756 0.4444716 0.47966182 0.36073714 0.34457546 0.56286454 0.37110224 0.41318434 0.66635513 0.49062312 0.42305735 0.41366124 0.4638347 0.50871354 0.45954853 0.4138384 0.39732832 0.37206826 0.4104386 0.42277896 0.37447178 0.3736511 0.3477592 0.34043851 0.4310543 0.5018903 0.52596146 0.42932495 0.38496602 0.33629522 0.30002445 0.3242936 0.35824823 0.32183474 0.3249076 0.31147063 0.29451153 0.3000109 0.3864718 0.4684165 0.50986564 0.18634555 0.23707101 0.25670952 0.32021618 0.2825436 0.28424644 0.29164064 0.2929092 0.30064034 0.25681657 0.37293756 0.46440092 0.101416826 0.11636067 0.113506384 0.23058505 0.21795295 0.25616616 0.27400872 0.44676375 0.088038504 -0.16468416 0.03322324 0.18309885 0.2066116 0.08319263 -0.051881425 0.16042814 0.011470154 0.2546244 0.27782544 0.29485032 0.3195802 0.30853662 0.40600625 0.34970078 0.24803543 0.41729265 0.3782063 0.21187402 0.10126846 0.45066047 0.4230011 0.45339578 0.29887408 0.41777003 0.44081038 0.43170932 0.41897142 0.38642728 0.35279366 0.3878863 0.36448157 0.30429703 0.5745699 0.49763474 0.3135768 0.3182899 0.41432285 0.5359447 0.5344271 0.51655304 0.48105282 0.45809305 0.47349986 0.558089 0.6032183 0.5512416 0.5599063 0.51105154 0.46942377 0.4347556 0.4071718 0.48460838 0.47619483 0.45670432 0.42934275 0.37119716 0.41146207 0.5202655 0.56520534 0.6256126 0.53167003 0.54269093 0.39286774 0.31115162 0.17879581 0.43055528 0.44499633 0.3325187 0.5490236 0.59145033 0.46416706 0.23174003 0.24543965 0.5075439 0.5601752 0.48375386 0.5220202 0.23180056 0.2541734 0.34907472 0.45147803 0.49237293 0.056347243 0.12128518 0.338264 0.37221768 0.08596911 0.2293579 0.21647298 0.18478988 0.13189545 0.0120694935 0.12820224 0.2570732 0.28129697 0.19635314 0.2541787 0.1660215 0.21506378 0.33163977 0.2977829 -0.01924327 0.372207 0.32552022 0.3030812 0.32151708 0.2843274 0.035483528 0.2973264 0.26703772 0.24797688 0.44370797 0.39647597 0.5436397 0.48520637 0.36736447 0.40903682 0.55098075 0.53664154 0.49394146 0.4598524 0.51038563 0.5100912 0.5437447 0.51329744 0.49811995 0.4761815 0.3256528 0.34202492 0.48575163 0.56355315 0.6967 0.5392711 0.55847406 0.42488617 0.39216596 0.39653754 0.46073332 0.39912072 0.3978099 0.32148585 0.7000332 0.45755553 0.51047254 0.33051082 0.68209565 0.36737323 0.60056186 0.50762004 0.4125299 0.32665086 0.44214353 0.47024223 0.39575458 0.3464722 0.35145837 -0.18325558 0.09360635 0.21124843 0.31868216 0.2506743 0.24396819 -0.23068985 -0.10581623 -0.043036312 0.21188319 0.24297437 -0.053682458 -0.028310034 0.035990633 0.07365903 -0.038535036 0.003891863 0.15187654 -0.15484309 0.094496645 -0.535401 -0.0277192 0.11742601 0.13506787 0.2179502 0.22815387 0.22510251 0.23309493 -0.044435114 0.13547331 0.17141692 0.16089252 0.16182049 0.40747952 0.16553965 0.35883272 0.4826642 0.4201203 0.3848207 0.41400167 0.4647394 0.43909213 0.6089676 0.606898 0.5894213 0.5690795 0.6011664 0.59522253 0.57164645 0.52845055 0.56772697 0.5780767 0.55947626 0.531479 0.4571488 0.41679946 0.5361413 0.58325297 0.46782845 0.46331865 0.46004117 0.4712219 0.20044285 0.3173067 0.46053845 0.6087669 0.6714903 0.48422483 0.37683922 0.33964628 0.25882438 0.28820276 0.25758606 0.18409851 0.7443086 0.73024786 0.35291404 0.350663 0.24728815 0.17438489 0.19383946 0.6965054 0.2422174 0.52994084 0.36926806 0.3163121 0.42542452 0.41460222 0.34555 0.39501575 0.39558762 0.24969757 0.36482745 0.19890283 0.2702713 0.22115944 0.1828504 0.20221168 -0.23223627 0.18671161 -0.32307303 0.101220444 -0.37081727 0.035785414 0.012944363 0.08547045 0.10809387 -0.18723024 0.03794595 0.18520737 0.115775704 0.08914713 -0.054485574 0.22969685 0.068517625 0.073856294 0.526937 0.46527892 -0.086727634 0.020672813 0.58573246 -0.07353766 0.22572213 -0.0056236982 0.32542613 0.3125013 0.18336047 0.14379811 0.13263433 0.3039771 0.45317906 0.32547167 0.45311156 0.5365524 0.64901286 0.66315854 0.5418323 0.5919954 0.62200284 0.6490582 0.6374948 0.5240373 0.5640137 0.6092353 0.6237273 0.5860666 0.46338636 0.5385468 0.5568222 0.5291584 0.39856857 0.5251728 0.47777075 0.34172386 0.38884327 0.43697003 0.49042988 0.3878186 0.33075452 0.34258494 0.26330128 0.52862066 0.5294421 0.5376717 0.6593076 0.68806696 0.6545041 0.25531864 0.6594335 0.74205923 0.7636758 0.71877325 0.3202719 0.683353 0.7322295 0.72607136 0.6758922 0.66358674 0.6466546 0.6375023 0.25742185 0.37452695 0.27866063 0.56323147 0.59038424 0.24911252 0.42734504 0.21858382 0.16472638 0.14571574 0.075606614 0.678063 0.18774955 0.19338766 0.048994824 -0.061319504 0.2703978 0.46254396 0.34857014 0.27582058 0.38410473 0.3905504 0.25376803 0.38231388 0.14831719 0.05612662 0.36910087 0.35074022 0.13948993 0.30059648 0.14826375 0.12722422 -0.06950252 0.11172691 0.052425068 0.09741057 0.070762426 -0.21081993 0.11913457 0.3924851 0.113094255 0.17149208 0.15865767 0.1436976 0.28922653 0.056159705 0.3384553 0.28685528 0.2739187 0.36176252 0.30163386 0.20213895 0.0070100017 0.06746351 0.516003 0.4404994 0.37546438 0.5875727 0.5964024 0.5421022 0.47734725 0.004621396 -0.0072122663 0.56850445 0.61074626 0.5987524 0.14363155 0.14231771 0.22740276 0.14089933 0.21534239 0.4705847 0.2325064 0.23289776 0.28721756 0.55221665 0.54331625 0.3324653 0.42325944 0.524504 0.54944015 0.5437256 0.51354575 0.53229177 0.5993404 0.6571152 0.6708368 0.6597241 0.44467184 0.4972118 0.5584695 0.6684119 0.6610836 0.45693576 0.500426 0.5736315 0.39873493 0.33528513 0.38954177 0.3076417 0.12968631 0.19700113 0.25529662 0.12736304 0.1157544 0.13072333 0.3339743 0.39544702 0.4847452 0.45572332 0.20561337 0.20805402 0.1381506 0.30487946 0.45822346 0.57891226 0.22563617 0.28137872 0.2192339 0.21228215 0.20066787 0.041882634 0.47616625 0.6669554 0.3532312 0.3892779 0.37133458 0.58948696 0.62907267 0.6199397 0.33224306 0.382407 0.48739672 0.45654923 0.55864847 0.5112364 0.6071087 0.61023784 0.5707717 0.2919917 0.26798096 0.6051177 0.56663543 0.4985402 0.15679573 0.13688481 0.26883253 0.32582453 0.4044398 0.5219075 0.4742006 0.017262075 -0.22295284 -0.09936966 0.25839487 0.38822395 0.14497052 0.047814846 -0.23524286 0.3775097 0.31011045 0.28828287 0.0188451 -0.40325105 0.3577757 0.36551854 0.3562103 0.35415882 0.07429841 0.35174483 0.055601895 0.10440597 0.32230803 0.10118099 0.12432276 -0.010261059 -0.38750735 0.029393649 0.3203652 0.20491186 0.11765599 0.085044965 0.40469816 0.40725476 0.14868224 0.117206715 0.45386627 0.44881988 0.41650665 -0.41447422 0.22160812 0.18440545 0.4461668 0.42108625 0.24742723 0.36352283 0.36157715 0.28498617 -0.035786413 0.44024357 0.3976672 0.283962 -0.057329085 -0.13075384 0.14417313 0.44672012 0.5512133 0.55522925 0.46352133 -0.13946533 -0.07881122 0.17446771 0.47265196 0.55372894 0.50024927 -0.1346675 0.0031002983 0.3586685 0.066866644 0.18620692 0.49162528 0.4328453 0.22375043 0.53038305 0.51232755 0.38360333 0.42542866 0.46102995 0.49672195 0.49963176 0.6062236 0.66333234 0.652969 0.63713115 0.4138203 0.59148824 0.5189651 0.3522537 0.40182567 0.5533916 0.41087365 0.36875555 0.47275263 0.4083267 0.18608654 0.16902679 0.47957745 0.4228971 0.21392758 0.26550478 0.31345665 0.28115344 0.21253175 0.2743148 0.14088959 0.34814864 0.5287277 0.66622895 0.70412266 0.14908683 0.12462033 0.43309745 0.5402629 0.6590537 0.68908226 0.19878294 0.5948614 0.59336865 0.66596854 0.25171766 0.2865317 0.4138072 0.5079767 0.4889385 0.43590176 0.40053266 0.35563993 0.35831338 0.48211533 0.5242379 0.5338661 0.3592994 0.2962837 0.48248523 0.46853092 0.49998337 0.49245575 0.4797985 0.3395626 0.33478916 0.35672218 0.4531905 0.5491457 0.42075765 0.2650435 0.44937304 0.46829236 0.27622652 0.22363408 0.063156694 0.22619113 0.25280383 0.5707491 0.43078673 0.37160078 0.30273232 -0.0522234 0.07217663 -0.07683178 0.013634175 0.10681264 0.16219515 -0.21192588 -0.23793025 -0.39940056 0.05159332 0.11342029 0.18555759 -0.043055948 0.33126688 0.27323106 0.18246311 0.3471214 0.0913659 0.17638448 0.20251316 0.2810626 0.10670343 0.12783876 0.17217016 0.12731399 0.14052606 0.21096027 0.1293575 0.08197081 0.3031943 0.039945595 0.024355583 0.21404447 0.27050838 0.1544103 -0.00012896582 0.17876112 0.2521388 0.35149673 0.35343045 0.3895712 0.046903905 0.41931105 0.1006922 0.7115282 0.69067985 0.6920757 0.42568958 0.44387007 -0.43513763 0.093953446 0.7486684 0.7404276 0.7419474 0.41889554 0.40358424 0.27369738 0.17783962 0.75955045 0.75742996 0.37297606 0.25572795 -0.25388426 -0.16978474 -0.16635631 0.1346096 0.25458974 0.28901553 -0.26311725 0.060762733 0.14955395 0.29133952 0.45797372 0.39245313 0.3267696 0.23827997 0.42345387 0.4927433 0.47656184 0.41430768 0.2510169 -0.036338285 0.45835403 0.5020058 0.4741416 0.35700047 0.21357062 -0.013762623 0.112284675 0.4136393 0.4445802 0.4195385 0.3498669 0.017220467 0.3409981 0.3462674 0.3255099 0.49194372 0.5312661 0.6366252 0.62892175 0.46874508 0.45517832 0.3369914 0.52169085 0.38576025 0.35124463 0.3062907 0.47751758 0.2329154 0.068189144 0.19686264 0.51891136 0.18210298 0.14416508 0.15190464 0.57892203 0.61414695 0.5274329 0.05922746 0.25651363 0.38341576 0.53487235 0.64080757 0.7089343 0.5090097 0.3995164 0.3592236 0.12265341 0.7374214 0.755345 0.3403291 0.27259657 0.7093984 0.7286167 0.26334 0.48850745 0.54779327 0.6499972 0.66391665 0.5027392 0.48298913 0.47291267 0.3298261 0.48304117 0.51439196 0.57702 0.2864996 0.27077374 0.048079215 0.5075048 0.49996358 0.47649398 0.43813205 0.40785378 0.34939235 0.34717447 0.46956992 0.5339248 0.2980801 0.2665166 0.084688336 0.5000499 0.4991104 0.2511242 0.2791686 0.27427104 0.2583016 0.15040709 0.105317116 0.47378996 0.12562963 0.07329607 0.2670558 0.22818224 0.18533756 0.12738349 0.4808538 0.36499888 0.32238787 -0.016043775 0.09652895 0.090689585 -0.022276461 -0.27627206 -0.21396384 0.037875175 0.11623564 0.18830962 0.22238591 0.086378515 0.12891997 0.64398116 0.64587754 0.11348014 0.12998325 0.16638218 0.14112082 0.2672027 0.24444056 0.16877301 0.30381006 0.05267619 0.28316873 0.15724078 0.22466275 0.11384408 0.59093904 0.5405398 0.2784313 -0.027009992 0.66082215 0.6484688 0.6162745 0.60921323 0.5799076 0.3569736 -0.030901656 0.71738714 0.72082454 0.6560607 0.6527004 0.67755187 0.6839087 0.40521836 0.76998377 0.7617707 0.76619506 0.75462234 0.7491057 0.36186987 0.40358788 -0.020083584 0.78995746 0.79104114 0.81206757 0.81329715 0.782285 0.39002818 0.3565221 0.19538619 0.1480386 0.81569254 -0.030139707 -0.45284998 0.13029413 0.2651065 0.23315687 0.4053592 0.35327956 0.11577806 -0.23680572 0.044577885 0.39013565 0.31582034 -0.19869536 0.46218532 0.5651891 0.56158704 0.53962266 0.40923133 0.46798208 0.45823437 0.13924721 0.526273 0.596054 0.6204722 0.60585886 0.4744164 0.45416898 0.4422909 0.12209929 0.100206785 0.46220475 0.44555116 0.43103382 0.39778966 0.047462277 0.2212419 0.3674663 0.33110893 0.31875688 0.1445736 0.14580289 0.17230453 0.48444426 0.48035464 0.6598158 0.65577173 0.61795056 0.5130986 0.45236483 0.39407873 0.61675197 0.5512037 0.22074652 0.30246145 0.21547498 0.23491967 0.25555053 0.2394914 0.24145272 0.2201431 0.5925157 0.043906227 0.22636615 0.17813139 0.5477329 0.5841759 0.59665185 0.5886307 0.098115884 0.63891697 0.6747199 0.6659422 0.6468426 0.6030803 0.4764272 0.75235605 0.6356064 0.6393753 0.60527134 0.50562763 0.2923458 0.1866394 0.7309146 0.62038326 0.6093653 0.55621856 0.47674018 0.3217278 0.4950083 0.48031825 0.15222244 0.6554832 0.5051038 0.49834698 0.39311516 0.48292688 0.4174808 0.48180848 0.4440976 0.24944374 0.3390461 0.45915166 0.5101788 0.5105531 0.44355214 -0.14343554 -0.058777444 0.5073005 0.22508761 0.029714223 0.3528699 0.10386643 -0.16056211 -0.18578826 0.09343382 0.4427725 0.2253739 0.272332 -0.089685276 -0.17540257 0.22401336 0.3313337 0.38286895 -0.024596915 -0.09298213 0.093612894 0.11250205 0.009852447 0.38898602 0.38577735 0.17452487 0.0060310382 -0.1249985 0.13444786 0.075462714 0.023594407 -0.3963452 0.077811964 0.12541047 0.12799338 0.097515255 0.05776669 0.055655964 0.42341325 0.28434098 0.3693837 0.47912782 0.56056964 0.05426036 0.54799956 0.6074188 0.59999764 0.5622896 0.045911416 0.13334526 0.04583965 0.6195222 0.646083 0.6601722 0.62051415 0.5472075 0.09683436 0.07811499 0.60726947 0.64401245 0.6296973 0.5848799 0.15339008 0.18809748 0.12421995 0.22009413 0.25322446 0.2547155 0.19867933 0.17930898 0.19981967 0.18147239 0.111529015 0.08654085 0.52604926 0.5746498 0.51966476 0.46831402 0.42355943 0.22688395 0.09002123 0.613801 0.46852815 0.5539702 0.018158907 0.17095137 0.18457854 0.6755052 0.63248503 0.62029314 0.3226264 -0.11630369 0.11014704 0.6929544 0.7109736 0.6692763 0.30201817 0.35254103 -0.082592905 0.66050744 0.7551099 0.7856568 0.7409258 0.69546425 0.1395522 0.1137768 -0.026404843 0.7707668 0.79339767 0.7805344 0.7597735 0.32473135 0.19607219 0.24228619 0.35195118 0.19008997 0.30156288 0.45535278 0.40654615 -0.25438255 0.21110098 0.5243301 0.45940018 0.53004193 0.49843204 -0.1877384 0.36728612 0.598649 0.6324394 0.60132337 0.5244703 0.4911214 -0.11823326 0.040478915 -0.011003301 0.5783584 0.6332005 0.6380129 0.6291208 0.5284497 0.4980511 0.45674896 0.34146816 0.25723577 0.49459687 0.43102735 0.3305528 0.20707998 0.19221875 0.19732262 -0.13185455 0.48727983 0.32770354 0.47147298 0.52471733 0.54061496 0.4461428 0.51361495 0.74017155 0.7333973 0.74607104 0.7475816 0.73188186 0.6304337 0.32497263 0.14478867 0.73997736 0.1690922 0.35954708 0.7191454 0.108352184 0.12382186 0.29327744 0.31934756 0.30619884 0.31537244 0.31097418 0.6467774 0.09479332 0.14291161 0.24523844 0.44831634 0.53919816 0.53567946 0.5813869 0.6266235 0.632784 0.5828219 0.6365886 0.56016976 0.6255281 0.62199485 0.424753 0.37321943 0.13025942 0.61331266 0.57732415 0.34129435 0.35588405 0.40415683 0.14734933 0.46489084 0.3383253 0.38874114 0.1465389 0.19605763 0.43549436 0.38206953 0.35073262 0.022215761 0.19480248 0.20798163 0.43411744 0.41489667 0.14095175 -0.0030752607 0.002448082 -0.122312814 0.24127163 0.32717165 0.06343694 0.10388857 0.12965757 0.20846179 -0.106525466 -0.11088795 0.15133072 0.03753963 -0.026724696 -0.08784663 0.009782784 -0.09249005 -0.17825733 0.019668447 0.22419061 0.346736 0.2735767 -0.16716307 -0.14660774 0.0165338 0.02720012 0.38236544 0.3216918 -0.36791393 0.13645893 0.066361606 0.03862763 0.07133943 0.3007158 0.45689923 0.43194482 -0.008695725 -0.15123087 0.022192957 0.12889443 0.07978019 0.09903074 0.49966586 0.059049822 0.027001671 0.053869605 0.47336805 0.21161403 0.06921926 -0.08985224 -0.13283241 0.5646152 0.54852694 0.43716478 0.03447366 -0.044043604 0.5062705 0.5567009 0.48640782 0.45302868 0.0078075305 0.53196996 0.3923278 0.44152057 0.045502163 0.25408638 0.1555492 0.14191447 0.2812997 0.08391698 0.34603208 0.38004678 0.3533921 0.32848725 0.28773442 0.017600719 0.42478895 0.35961148 0.36554617 0.31114602 0.14591481 0.11656512 0.49623722 0.2101239 0.21661031 0.5504068 0.6075108 0.61183137 0.061623063 0.14548291 0.52481055 0.6440128 0.20250326 -0.05884521 0.014244843 0.52815706 0.54201704 0.6779976 0.67542434 0.5229862 0.6036594 0.66865516 0.68995327 0.7140448 -0.025522001 0.1919754 0.24095887 0.1784467 0.4619452 0.54626155 0.49992418 0.07283601 0.5862752 0.5442209 0.5430222 0.21444947 0.15539627 0.55464697 0.6017484 0.5687796 0.5450311 0.52936375 0.3311021 0.5204406 0.50947034 0.14105412 0.003040284 -0.08445224 0.5454488 0.44736058 0.26582804 0.22324511 -0.17912154 0.10372675 0.55822814 0.6329268 0.5419104 0.2956067 0.40051305 0.4728405 0.5172128 0.54239964 0.7162185 0.59628665 0.8123232 0.8269206 0.78758246 0.7908226 0.822844 0.61102486 0.3589525 0.78193533 0.3224973 0.4017129 0.3874144 0.3888271 0.3745278 0.76135975 0.30427897 0.10514731 0.40351325 0.3709829 0.3723573 0.38756114 0.37580046 0.03916952 0.036433183 0.11664985 0.3293696 0.34435987 0.45109856 0.2490899 0.05359006 0.045494273 -0.015884623 0.44107246 0.48931766 0.40655473 0.58079755 0.54319936 0.49890086 0.38055488 0.6441221 0.048462998 0.51658636 0.4659112 0.42718455 0.32092828 0.21118402 0.066863865 0.45122463 0.28051937 0.23796673 0.29466665 0.1183247 0.20722975 0.07902431 -0.012694985 0.20861578 0.26077104 -0.032699555 0.016517676 0.16984394 0.7402624 0.79168546 0.82665247 0.36128247 0.15048917 0.47193485 0.71602523 0.79245317 0.067611285 -0.35408083 -0.24338573 -0.030513618 -0.19146186 0.3500665 0.62231255 0.7014787 -0.33293957 -0.086227015 0.23164302 0.1757541 0.314631 0.5178722 -0.08972403 -0.10745956 -0.19290183 0.19392869 0.18106848 0.1528513 0.14003962 0.098534584 0.06829007 0.41722968 0.3302287 0.27877924 0.1406457 0.08103919 0.39198026 0.36983258 0.32590246 0.27435762 0.005445926 0.39997208 0.31139988 0.2614201 0.22421646 -0.004157275 0.4340362 0.02289955 0.2924212 0.2992137 0.33931664 0.35017604 0.3385026 0.21493085 0.044142246 -0.038760103 -0.05134862 0.24408433 -0.067147285 0.3077927 0.29036915 -0.0934646 0.23023623 0.13220988 -0.081048205 0.33417472 0.3283431 -0.06240432 -0.010448096 0.21107045 0.43266165 0.013167467 0.29838252 0.2980809 0.24708357 0.5089687 0.09129123 0.3375217 0.5376674 0.47382677 0.43081394 0.39650354 0.59523994 0.30601454 0.18411465 0.3572144 0.6017474 0.001582522 -0.020267677 0.16713849 0.3450547 0.24959594 0.577593 0.6355766 0.4441697 0.5893479 0.61439687 0.6318105 -0.24728462 0.14811389 0.4157356 0.4659738 0.05662187 0.2422137 0.40905374 0.45532548 0.46959737 0.43695775 0.30902576 0.31668085 0.5462464 0.5480761 0.431135 0.47308248 0.5441607 0.03798914 0.4853597 0.5468167 0.5446735 0.37758884 0.5433811 -0.007876821 0.52477556 0.6450516 0.57008064 -0.10348157 0.57727253 0.5905599 0.70947313 0.66589236 0.55365807 0.5850214 0.6196239 0.2243773 0.40507093 0.4600346 0.5127711 0.55673033 0.5489073 0.71729136 0.5378357 0.76269925 0.7701439 0.7473364 0.8546492 0.8330764 0.76742125 0.6861137 0.8304126 0.8563286 0.8294177 0.7403109 0.6143298 0.48574907 0.7984922 0.82988834 0.59229565 0.4033407 0.42732233 0.42368013 0.4201929 0.44022113 0.7364949 0.7629963 0.51821756 0.42621368 0.37860566 0.4286936 0.30796632 0.65939367 0.66596746 0.44111067 