# vtk DataFile Version 2.0
Really cool data
ASCII
DATASET POLYDATA
POINTS 9848 float
18.092896 25.137718 17.770306
18.100655 25.104448 18.42097
18.125309 25.164509 18.862076
18.130257 25.842236 16.912882
17.875181 25.571508 17.776472
17.78245 25.650764 18.388037
17.999424 25.731339 18.97929
18.16357 26.542828 16.539312
17.729595 26.304926 17.713497
17.72003 26.324402 18.38838
17.99762 26.329966 19.024014
18.183044 27.234068 16.654696
18.080467 27.458126 17.547503
17.982384 27.002611 18.52441
18.220318 27.180468 18.901873
18.383268 27.967766 16.765194
18.322685 27.988348 17.438698
18.774279 25.222809 16.845093
18.662197 24.835192 17.586931
18.603592 24.795847 18.548756
18.820812 24.973385 19.066626
18.779547 26.011723 15.8936615
18.527927 25.738527 16.38173
18.459324 25.568478 19.297071
18.807375 25.857893 19.664013
18.423117 26.373558 19.478231
18.795193 26.415447 19.7268
18.696598 27.438461 15.961897
18.42749 27.557325 18.587883
19.010841 27.252449 19.401436
19.120825 28.303707 16.192226
18.831106 28.365852 16.61512
18.756733 28.406202 17.429993
18.696882 28.029665 18.143476
18.978237 28.600956 17.195827
20.37866 22.148113 13.363365
20.330864 22.846472 11.978686
20.202648 22.701887 12.535824
20.205828 22.602928 13.478173
20.139118 22.906034 14.252667
20.347666 22.755604 14.847216
20.246931 23.468584 11.874631
20.023996 23.547827 12.697281
20.002647 23.304827 13.196647
20.174603 23.464958 14.457602
19.239475 24.419651 17.896893
19.639297 24.451588 18.226698
20.265703 24.051598 12.072065
20.208042 24.127499 12.613315
20.299034 24.77242 13.859741
19.230673 24.932304 16.922033
19.278078 24.544315 17.72522
19.348837 24.550444 18.627045
19.623207 24.898396 19.08075
19.553148 26.060959 15.217083
19.85107 26.073336 19.878607
20.448774 26.069422 27.904858
20.400728 26.1321 28.083353
19.354721 26.625357 15.230706
19.387472 26.283133 19.88051
20.366024 26.546726 27.848381
20.327806 26.552202 28.475643
20.381561 26.89921 29.045458
19.386871 27.192322 15.230952
19.301256 27.66 15.525085
19.537996 27.589674 19.282543
20.371002 27.862083 28.049862
20.30884 27.288347 28.12818
20.362247 27.523142 29.243128
20.096159 27.919676 15.220917
19.555603 28.444183 15.951797
19.498808 28.389694 18.250246
19.79217 27.667835 19.24226
20.41013 28.367605 28.555935
20.390905 28.265146 29.144232
19.773726 28.655346 16.17111
19.656137 28.794504 16.69029
19.562859 28.825035 17.37067
19.99242 28.595505 17.812403
21.131472 21.385221 12.923325
20.883583 22.025831 11.941701
20.763979 21.863987 12.498749
20.852942 21.74129 13.468088
20.7248 22.152813 14.423314
21.067131 22.130169 14.854989
20.913534 22.927637 11.35042
20.689102 22.591066 11.711944
20.421051 22.713482 14.689387
20.753317 22.558315 15.117092
20.944265 23.56347 11.245484
20.571882 23.49061 11.503044
20.729338 23.825436 15.26532
20.66012 24.309267 11.802123
20.46363 24.52622 13.758004
20.344809 24.658535 18.504614
20.445961 25.02389 19.108156
21.123446 25.403318 27.719723
21.139374 25.370396 28.342842
21.143717 25.029528 11.786933
20.748604 25.020731 12.56427
20.718334 25.358648 13.885504
20.615013 25.569977 19.474125
20.14098 25.870975 19.696064
20.969454 25.839594 27.21615
20.758091 25.74753 27.721642
20.665516 25.835508 28.334826
20.926151 25.904148 29.04178
21.293428 26.538677 13.55782
20.192923 26.496193 19.879055
20.686203 26.59331 27.150167
20.52242 26.365175 27.456528
20.524406 26.320665 28.781252
20.710835 26.426157 29.19907
20.949482 27.003927 30.03353
20.637064 27.402151 14.371251
20.77423 27.633093 19.110903
20.022867 27.012648 19.753214
20.938047 27.060373 26.86233
20.589378 27.536856 27.55179
20.548908 27.29834 29.694925
20.772306 27.607471 30.112568
21.205982 27.834412 14.124509
20.757097 28.100807 14.805436
20.284012 28.333431 15.584726
20.981733 28.294594 27.285948
20.753496 28.46042 27.627506
20.572235 28.724348 28.281767
20.57171 28.527277 29.468645
20.903864 28.510874 30.211546
21.260567 28.332766 30.777615
20.77143 28.635212 15.650919
20.898624 29.11056 16.783892
20.575254 29.05503 17.117203
20.623278 28.822893 18.013023
21.019999 29.079216 27.761698
20.782982 29.080935 28.414997
21.020613 29.248785 29.5258
21.228317 29.024586 30.268793
22.475496 17.133844 24.725214
22.488922 17.44273 24.954935
21.854925 21.429747 12.128199
21.528835 21.340206 12.579531
21.458267 21.355085 13.284942
21.500784 21.686924 11.933546
21.419018 21.481821 12.25679
21.273277 21.864584 14.729258
21.518787 21.90522 14.819059
21.583273 22.486223 11.291854
21.777328 22.381683 15.356398
21.409033 22.920456 15.605529
21.597733 23.539286 10.960424
21.446226 24.31214 11.194348
21.281042 25.028755 18.255964
21.59711 25.229727 27.818996
21.576183 25.1908 28.450731
21.953556 25.220251 29.044455
21.795786 24.939398 11.206625
21.565079 25.284279 11.658895
21.5723 25.7067 26.970367
21.260105 25.407204 28.744669
21.590754 25.576195 29.231035
21.671497 25.811144 29.66976
22.13759 26.380228 11.5409775
21.405922 26.282019 19.290949
21.542236 26.467133 26.645803
21.554535 26.635931 30.126104
22.070375 26.98943 30.808239
21.689285 27.481165 13.572787
21.658976 27.412666 26.699675
21.800135 27.81453 31.162096
21.46935 28.327143 14.518361
21.660067 28.616428 27.05727
21.61141 28.666895 31.21493
22.198162 28.605227 31.938791
22.440561 29.099264 8.930384
21.661726 28.703318 14.931602
21.25016 28.80668 15.400168
21.715372 29.038177 16.818264
21.566341 29.095758 17.586462
21.244831 28.796236 18.11366
21.671103 29.127455 27.299871
21.67057 29.385284 27.62414
21.289291 29.528685 28.449867
21.41901 29.609835 29.849657
21.640772 29.304688 30.669165
21.80999 29.33115 31.316738
22.112188 29.29892 31.767797
21.960655 29.791512 28.054398
21.628164 29.734047 28.459532
21.991978 29.864246 29.630146
22.220217 30.160873 30.69353
21.95694 29.87909 30.97417
23.330717 15.046757 24.678165
23.259375 15.0009985 25.35802
23.325712 15.092944 25.886627
23.16956 16.050646 22.672438
23.10402 15.809223 23.360128
22.975018 15.776263 24.632904
22.941296 15.729771 25.496294
23.213121 15.73038 26.211765
23.078392 16.682722 22.19944
22.942123 16.575037 22.673412
22.732447 16.689056 23.412445
22.559423 16.851603 24.639597
22.723515 16.630293 25.514048
22.901691 16.51603 25.924622
23.209753 17.536585 22.049974
22.80318 17.16044 22.822308
22.625132 17.561895 23.792393
22.544071 17.48819 24.67862
22.654806 17.4611 25.337519
22.988577 17.445496 25.889355
23.431263 18.89668 15.931273
23.335096 19.044975 16.674936
23.39561 19.046083 17.161055
23.371984 18.316196 21.980795
23.200596 18.615213 22.484322
22.871536 18.335283 23.769646
22.763008 18.12404 24.644934
23.030699 18.232227 25.31198
23.092989 17.873493 25.90309
23.434702 19.649021 15.570535
23.225487 19.583492 16.621088
23.334173 19.459776 17.309025
23.2726 19.065506 22.512196
23.384531 19.008198 23.445366
23.175673 18.677015 24.817797
23.229492 18.744963 25.091791
22.615896 21.390387 12.097163
22.467772 21.225939 12.542847
22.113783 21.127378 13.120013
23.245413 20.218842 15.667578
23.253025 20.113455 16.77282
23.350983 20.577038 16.89962
22.507595 21.944286 11.642623
22.742334 21.58218 14.618579
22.361923 22.02974 14.95886
22.573786 22.72327 10.979837
22.748726 23.570536 10.757711
22.798765 23.64093 15.593235
22.59504 24.218513 10.828277
22.705572 24.7742 16.461578
22.558376 25.048689 17.178253
22.454594 25.27485 27.547445
22.46824 25.105377 28.455374
22.290434 25.313902 29.365288
22.76297 25.457401 11.037847
22.584238 25.457954 17.719265
23.036598 26.074574 20.398228
23.374134 25.754059 21.446018
22.559988 25.926455 26.746796
22.215916 25.547314 29.516737
22.481873 25.97407 29.892443
23.080658 26.371374 19.462393
22.922909 26.725498 19.846779
23.198526 26.819305 21.45647
23.332075 26.87189 21.811907
22.986814 26.925581 31.029171
23.043905 28.234362 8.937872
23.037813 28.178867 9.191098
23.02359 27.319542 12.052861
23.207367 27.697588 20.332554
23.202095 27.436289 21.454739
22.767801 27.316963 26.609137
22.573292 27.868055 31.907753
23.07858 28.837534 7.8962016
22.63782 28.864971 8.780254
22.656796 28.954214 9.337958
22.625858 27.747362 13.190611
22.549793 28.350163 18.225758
21.984613 28.324724 18.634119
23.357374 27.928917 20.120594
23.289322 28.187195 21.091732
22.379562 28.332819 26.90937
23.001316 29.48377 7.764906
22.565748 29.347063 8.706492
22.51671 29.304184 9.314091
22.566875 28.835138 14.851057
22.46086 28.94716 15.667286
22.176794 29.032583 16.445541
22.495234 28.790651 17.63309
22.51127 28.839527 27.169327
22.320135 29.391714 27.534693
23.152573 29.431843 32.420033
23.288269 30.733257 7.316323
22.927671 30.686342 7.734122
22.638092 30.357216 8.302172
22.60862 30.153482 9.33964
23.086248 30.309769 9.935708
22.80111 29.915709 27.895863
22.693733 30.075634 28.351149
22.563639 30.484634 29.942682
22.506062 30.317886 30.436232
22.758883 30.419437 31.285791
22.92614 30.109575 32.11967
23.231571 31.109745 7.3170815
23.037374 31.323626 7.7663107
22.831406 31.4331 8.640059
22.933098 31.234549 9.425369
23.181843 31.29127 9.890606
22.73653 30.674917 29.99442
23.138391 31.082504 30.466166
23.059895 30.92459 31.29121
23.218895 31.862003 7.759016
23.140493 31.912567 8.529991
23.18316 31.861628 9.167957
23.975252 14.3541975 24.607534
24.109768 14.244992 25.419863
24.063494 14.355265 25.8949
24.246569 14.77383 21.627644
23.87959 14.949164 22.820677
23.981987 14.576189 23.469612
23.416307 14.923146 24.82359
23.609497 14.664026 25.528542
23.690214 14.996636 26.30921
23.801077 15.804563 21.70385
23.61885 15.558652 22.32924
23.510761 15.510821 26.458727
23.86857 15.536171 26.774202
24.106049 16.762356 20.997183
23.652569 16.286415 21.672003
23.534021 16.917675 26.457611
23.762112 16.496527 26.757809
24.162054 18.076128 15.774999
23.974024 18.100882 16.415722
24.214705 17.938395 17.274809
23.563047 17.458435 21.532972
23.451326 17.394815 26.317938
23.755495 17.152431 26.654593
23.74074 18.592005 15.646202
23.597023 18.530169 16.369612
23.673943 18.415771 17.109722
24.018415 18.765635 18.25635
24.026564 18.03146 21.049082
23.607086 18.303345 21.392342
23.436678 18.524382 25.563751
[...]
POINT_DATA 9848
SCALARS features_00 float 1
LOOKUP_TABLE default
0.7907666 0.8364855 0.86413145 0.7738148 0.8199583 0.8687339 0.8939595 0.7709666 0.8727771 0.8897102 0.8985287 0.7485775 0.7869344 0.86965835 0.8595754 0.66755736 0.711501 0.72520554 0.7601969 0.81605864 0.85351896 0.6820551 0.72864705 0.89730346 0.90531594 0.9000434 0.891952 0.6164509 0.803679 0.83504057 0.5527677 0.60743463 0.6548681 0.71712446 0.6194909 0.68302786 0.7108917 0.72028947 0.68592924 0.61476165 0.54767585 0.66507643 0.65828913 0.6819168 0.6215 0.77100587 0.7795147 0.60681 0.5872612 0.48868728 0.6727122 0.7538663 0.80225176 0.8402333 0.41824275 0.8122091 0.755443 0.7443303 0.49725583 0.8618915 0.74207497 0.71377254 0.6854101 0.47355205 0.4938324 0.7690458 0.7341557 0.720899 0.67595863 0.39125532 0.49431643 0.6359252 0.7319946 0.711143 0.67756593 0.49115625 0.53461933 0.56951416 0.5568003 0.6081575 0.6795185 0.6735623 0.6444868 0.56625295 0.50357956 0.68709993 0.7098572 0.55942035 0.4966913 0.63283294 0.6538441 0.5352912 0.580232 0.55137146 0.713302 0.74127793 0.7989178 0.7571898 0.50027287 0.4721099 0.31074822 0.7052171 0.77324724 0.8200592 0.77789986 0.7402607 0.7007451 0.20758396 0.7639942 0.79310966 0.7729566 0.7049794 0.6801795 0.619429 0.26736173 0.61535966 0.77676064 0.8169184 0.7619033 0.6513081 0.6220401 0.2732433 0.3219992 0.4075337 0.760045 0.74583745 0.71479386 0.6421831 0.5766699 0.5507845 0.3849743 0.44362572 0.47943553 0.49135095 0.6996596 0.6905143 0.57600784 0.5245123 0.55945957 0.553142 0.53155315 0.56330955 0.57828265 0.59230316 0.58476484 0.50016356 0.46548697 0.65731496 0.35425317 0.39938217 0.5977294 0.5504259 0.45307094 0.8399248 0.7774613 0.75626564 0.49211168 0.46689114 0.9352225 0.73733366 0.71033096 0.66239536 0.40140468 0.51172096 0.95596457 0.58469754 0.4958611 0.2500006 0.8721962 0.53796256 0.29159537 0.6756699 0.520913 0.5211858 0.8217195 0.30891228 0.3511051 0.36150593 0.3773945 0.4243229 0.6311215 0.61895794 0.6402561 0.4979796 0.48429143 0.49182695 0.51508206 0.56359684 0.5972691 0.47506902 0.44212553 0.45756707 0.43226716 0.4905632 0.5221741 0.34577483 0.39019346 0.5240785 0.5772017 0.5793736 0.34267288 0.37821937 0.46916395 0.56078345 0.5936763 0.5957638 0.37470886 0.42812514 0.5117247 0.5440012 0.5513786 0.53293085 0.48011458 0.49440846 0.5019325 0.40498817 0.44703156 0.47105804 0.49674985 0.48820224 0.4973724 0.48259085 0.5055429 0.5122293 0.4388829 0.39350384 0.42472857 0.4195825 0.41075456 0.4149331 0.46636593 0.41610315 0.4913605 0.43536514 0.51429147 0.263679 0.3139364 0.5374074 0.44289368 0.028649218 0.43630442 -0.2331784 -0.1960015 0.90958846 0.7857487 0.7411448 0.38913822 -0.15518723 0.53525656 0.54541403 0.98556507 0.7116647 0.625726 0.45974025 0.55768126 0.6420212 0.6597915 0.32331294 0.8277719 0.83040947 0.31658095 0.58576345 0.6478239 0.69585085 0.45248058 0.77934873 0.82091963 0.81932306 0.25476426 0.19816376 0.3090253 0.51191336 0.5698508 0.61325866 0.76745653 0.8093903 0.8106278 0.24290127 0.2734967 0.30519462 0.24812219 0.55302143 0.54492265 0.49714553 0.6437756 0.7039604 0.78759193 0.8111658 0.77917093 0.47937107 0.47888163 0.4358533 0.43508124 0.45515972 0.5152157 0.64340323 0.68172705 0.7578658 0.78242326 0.7508283 0.43438032 0.42734766 0.439659 0.6740383 0.7260678 0.74572456 0.32962316 0.37866998 0.42884064 0.19287962 0.2717992 0.2760667 0.42905343 0.45755005 0.51570904 0.25173184 0.2891298 0.5594561 0.54837865 0.23235343 0.27971512 0.5274392 0.53972065 0.37903774 0.4095717 0.38720882 0.3224794 0.4919978 0.47841907 0.44663274 0.45753777 0.45967364 0.47104776 0.24387056 0.33440378 0.4293472 0.3928439 0.099127635 0.36683494 0.4456187 0.3926399 0.4032329 0.35913014 0.22194555 0.2721011 0.3293006 0.027512932 0.3992619 0.3954642 0.34145018 0.36272952 0.28763855 0.33621523 0.01752279 0.18932013 0.27689636 0.009957887 -0.021906553 0.29173416 0.31048697 -0.23829952 0.199458 0.3844838 0.4513093 0.7346128 0.6801397 0.30151296 0.53043574 0.5538324 0.77678674 0.7891736 0.6276302 0.6209276 0.29101658 0.6467743 0.6733039 0.16997023 0.74266315 0.7792218 0.79705894 0.66461766 0.5881569 0.34213358 0.64321154 0.7059065 0.8861021 0.23679903 -0.017201878 0.5211096 0.54797035 0.47512114 0.4174875 0.36731148 0.64738953 0.820358 0.71971846 0.14993292 0.15419719 0.13301328 0.18143696 -0.004601337 0.42202935 0.48073697 0.45233342 0.45171514 0.6068095 0.69338775 0.41654631 0.39502317 0.49635142 0.47967398 0.60346913 0.6503954 0.68466944 0.4009925 0.40245372 0.41354525 0.42188945 0.45236054 0.6351286 0.66650766 0.69501615 0.70497125 0.6830461 0.3902206 0.3897022 0.6865182 0.24712418 0.26309368 0.20610416 0.117775336 0.07726339 0.13531408 0.21817386 0.21728674 0.16777101 0.18348022 0.3018437 0.40771025 0.06488651 0.09876954 0.48903805 0.46425498 -0.08868084 0.009059922 0.5047481 0.2440182 0.14164376 -0.08472727 0.105543934 0.4558656 0.27031177 0.3164689 0.33069623 0.2991433 0.35610467 0.37280887 0.18059744 0.14706196 0.27693373 0.1894987 0.030361459 0.29202574 0.22187024 0.27536508 0.1548229 0.18160528 0.20803086 0.23811531 0.16851452 0.23728733 0.13757479 0.25427753 0.28219056 0.2794437 0.22157487 0.07230848 0.14729321 0.24041891 0.25594115 0.033294212 0.18736188 0.20823763 0.25685668 0.059128955 0.2052638 0.2465491 0.2516503 0.0802996 -0.032237858 -0.03458824 0.23063678 0.28030324 0.2893579 0.32380706 0.14576893 0.24423948 0.23938766 0.33285648 0.4107877 0.46539116 0.51260096 0.16289446 -0.17246363 0.13842285 0.30783644 0.34863693 0.44480383 0.17335397 0.20583323 0.29497147 0.3788004 0.4305747 0.49462476 0.5086844 0.18695682 0.48063087 0.46656942 0.51496464 0.40038988 -0.14144629 -0.09377627 0.22786254 0.38114834 0.45862395 0.4523299 0.45110798 0.594397 0.61537313 0.57998836 0.60355437 0.10791576 0.10244073 0.336531 0.36537826 0.46224898 0.4288495 0.42331523 0.638459 0.6119509 0.6864032 0.70628726 0.13274404 0.5929497 0.5094059 0.45909113 0.43316352 0.19025928 0.376163 0.38793588 0.57130045 0.61278456 0.06942224 0.52809495 0.48754197 0.36633494 0.3329093 0.5777948 0.07540544 0.07847616 0.07097071 -0.06541887 -0.0492333 0.07079716 0.33220798 0.3833034 0.4140997 0.36872894 0.36772102 0.5650526 0.3530962 0.3709871 0.5775007 0.61301696 0.5804609 0.3246923 0.36928686 0.6232004 0.6604007 0.599574 0.593555 0.3571049 0.367907 0.33968174 0.630798 0.63663733 0.63504833 0.47643608 0.4495601 0.4479279 0.33653453 0.38562703 0.34996426 0.30832446 0.22906649 0.10816163 0.105469994 0.24117911 0.31947002 0.2179827 0.23142105 0.24404442 0.18707262 0.15262717 0.07141035 0.11810981 0.29856288 0.11248134 0.113963574 0.27724582 0.37870812 -0.03918893 -0.039864875 -0.047037765 0.12442487 0.04864709 -0.0053663254 0.33647382 0.10962916 0.22788878 0.21226183 0.24089137 0.2501287 0.22580251 0.06967053 0.26288047 0.24601704 0.25374264 0.19827044 0.06904561 0.25011414 0.045247473 -0.033394504 -0.19375063 0.080908015 0.20200953 0.12186796 0.22400057 0.25110665 0.24510689 0.27368665 0.26507586 0.11466211 0.14288679 0.031720392 -0.13053536 -0.18101457 0.19042026 0.22961167 0.24924877 0.20061204 0.1661717 0.28227684 0.19276725 0.0261488 0.096577525 0.19065046 0.22961175 0.36825132 0.46558893 0.540776 0.055994436 -0.14262952 -0.16161986 -0.014161178 0.06525782 0.1486249 0.13514403 0.08431769 0.12235474 0.052790247 0.0013478175 0.08479353 0.49305272 0.53866297 0.5812079 0.012194082 -0.036392096 0.13450868 0.28703493 0.29404238 -0.055462874 0.038300335 0.08257248 0.53688926 0.57421994 0.05270146 0.16553417 0.49165657 0.5296826 0.5648324 0.40143463 0.3012696 0.017664254 0.44292423 0.50144666 0.47528714 0.45896506 0.58052915 0.3836133 0.30471393 0.1403595 0.3273444 0.31942427 0.31878805 0.4229288 -0.020755917 0.36144042 0.2220231 0.18951371 0.25523707 0.30860382 0.46872497 -0.024010569 -0.011482708 -0.00702928 -0.033768363 -0.099894136 0.010964006 0.10497965 0.1520662 0.2958437 0.20139101 0.13582188 0.21922624 0.5242371 0.28644523 0.592602 0.4135579 0.4460188 0.32819107 0.16150579 0.6043689 0.47479612 0.36283833 0.37325925 0.29544795 0.26381463 0.2031042 0.59260654 0.5964352 0.5679265 0.36186028 0.34701842 0.3094841 0.48630577 0.49894917 0.48555702 0.4566602 0.40071014 0.4589777 0.47727937 0.40685064 0.35833687 0.33063075 0.35399243 0.38005707 0.34832627 0.35923713 0.22473843 0.28718424 0.35145336 0.3932352 0.41490364 0.18287821 0.22158302 0.18398374 0.37366873 0.43606532 0.46174103 0.61574435 0.66079235 0.15116665 0.44740057 0.4728784 0.65492904 0.6819023 0.7171844 0.6554884 0.5815218 0.4374445 0.67744887 0.7183018 0.72913295 0.686877 0.59676504 -0.078122765 -0.042342708 0.13909659 0.64774656 0.687806 0.6967453 0.66958165 0.6002462 0.031464055 -0.0023657382 0.6341578 0.30421248 0.189453 0.02325268 0.00071814656 0.56223965 0.6064631 0.5987265 0.56039697 0.36381426 0.3678857 0.3534736 0.18104249 0.18291137 0.14627528 0.040807918 0.49180856 0.47545195 0.48327637 0.5113668 0.4632731 0.37054208 0.32985067 0.17808458 0.36890578 0.35646406 0.33520907 0.3448794 0.3526865 0.3651021 0.38044062 0.108388335 0.08585481 0.21741888 0.25918368 0.21124168 0.2531325 -0.4524925 -0.26668552 0.013085801 0.22831798 0.1509259 0.14579217 0.03603153 0.09347792 0.09183361 0.15634269 0.37968862 0.26220405 -0.23513669 -0.41951764 -0.15732771 -0.043883182 0.07480902 0.35185796 0.5682608 0.59809005 -0.14252347 -0.27874643 -0.054478608 -0.16589403 -0.13752279 -0.10626539 -0.05571326 0.12829617 0.6089045 -0.17832541 -0.0064952 0.09446521 0.11417023 0.085830145 0.12930942 0.023200419 0.60236144 -0.24221213 -0.24969383 0.1439829 0.559754 -0.2342653 0.1455876 -0.14308426 0.44891658 0.23794813 0.2007064 0.0011097789 -0.118219905 0.31406635 0.27330846 0.32966155 0.34888518 0.19200213 -0.019966379 0.28527817 0.3583036 0.3096986 -0.087303884 -0.094699174 -0.061953425 0.0024229065 0.030056823 0.18432799 0.004576519 -0.053262368 0.18451051 0.21031578 0.34698814 0.39364737 0.44861588 -0.107195534 -0.16771588 0.14177935 0.10611263 0.1097878 0.11031823 0.14583173 0.16914804 0.14104119 -0.055606492 -0.017497063 0.2776154 0.07480307 0.1555401 0.31480366 0.109756775 0.5270666 0.353056 0.35633773 0.26478347 0.24688601 0.5421965 0.484362 0.5122391 0.35260645 0.31716344 0.29984915 0.28781748 0.3258711 0.3495602 0.3189972 0.34285268 0.6730223 0.48810595 0.4815228 0.46377316 0.41349706 0.68821806 0.70192146 0.67396605 0.5408548 0.4744654 0.4911921 0.488961 0.46999174 0.40134823 0.32624707 0.72562647 0.7213645 0.6604663 0.4922789 0.4258202 0.42204276 0.27288452 0.18656561 0.31982428 0.36551952 0.38767612 0.721238 0.67275274 0.5178082 0.35440943 0.3872971 0.20990053 0.29200348 0.40247524 0.40665063 0.43669015 0.4480962 0.43652248 0.16140415 0.40923885 0.4426551 0.5788213 0.5179952 0.54165345 0.5702659 0.51610184 0.090466425 0.4719708 0.4652782 0.65502155 0.63104856 0.51499623 -0.0066216253 0.03990968 0.43111634 0.67131376 0.6679876 0.5207187 0.39533487 -0.11921631 0.2632129 0.6491138 0.6239612 0.5756315 0.48508295 -0.10206197 -0.06727272 0.013103355 0.6720568 0.7091016 0.736918 0.70875454 0.51532125 0.4470321 0.5515207 0.32487863 0.37171695 0.27805385 0.23436135 0.16491951 0.022605076 -0.077521965 -0.11277733 -0.036453295 -0.038567152 0.5958059 0.6258093 0.667594 0.6354225 0.6048622 0.56102765 0.2560438 0.34825578 0.0005447082 0.48808542 0.47425944 0.29726547 0.3514214 0.03212504 0.32671496 0.33168665 0.22083381 0.3203187 0.3503406 0.009748071 0.17991376 0.34655792 0.38837925 0.476294 0.29475278 0.25277984 0.20328052 -0.5512379 -0.27106187 0.55465126 0.15861139 0.015646577 0.5589564 0.5287548 -0.29885152 0.08028044 0.018443793 0.54741514 -0.3342852 -0.024151232 -0.07560499 -0.2846539 0.4778161 -0.427436 0.044528782 -0.036148485 -0.19620976 0.37839732 -0.10806308 -0.3201369 -0.1683017 0.29527506 0.21232092 0.111137226 0.3742064 0.3487826 0.30952188 0.13975051 -0.15046087 0.39805275 0.38671193 0.43852347 -0.035283472 -0.064655095 0.007900562 0.15812594 0.17967696 0.14568992 0.1728023 0.21026418 0.23207398 0.1490992 0.20060435 0.09564921 0.37917528 0.39801967 0.4386545 -0.045857362 -0.0148256775 0.19769128 0.23521715 0.22008179 0.15988028 0.14708915 0.17038243 0.22805099 0.2843578 0.17795014 0.22491148 0.43312702 0.41023195 0.08994988 0.29579577 0.22587164 0.33375812 0.32177788 0.403219 0.41828895 0.3240983 0.28716126 0.26706776 0.40667278 0.40577525 0.43522036 0.25859725 0.26979807 0.3426879 0.3747149 0.4047415 0.4707281 0.40104198 0.42815468 0.5906627 0.6241088 0.627602 0.46739584 0.4525926 0.46265477 0.4589346 0.39631027 0.33329064 0.64486873 0.4980063 0.38953856 0.26720068 0.44085848 0.46710533 0.2941605 0.17270634 0.2103492 0.26551026 0.52138644 0.39465407 0.22349876 0.18412964 0.36242747 0.2766096 0.34956074 0.37036282 0.37524587 0.29340595 0.28377762 0.21699831 0.35576075 0.38809264 0.28901556 0.42655548 0.50837624 0.2641908 0.24000448 0.19064032 0.19759963 0.19804266 0.17726463 0.36478385 0.3743412 0.5585499 0.47680712 0.39179733 0.14696662 0.4158314 0.649479 0.33339143 -0.048561037 0.4248736 0.38939905 0.63421816 0.6569055 0.25621405 -0.13390495 -0.13216874 0.10699421 0.6127848 0.53795075 0.16936429 -0.16954216 0.03378934 0.72782147 0.7774991 0.82896036 0.76494646 0.69845307 0.50052816 0.39912552 0.112167485 0.06275896 -0.10499324 0.6312207 0.6317407 0.5735929 0.036853567 0.10654916 -0.12663156 0.23755991 0.51724935 0.18035176 0.2492724 0.09300232 0.27554214 -0.15527281 0.20008034 0.2899182 0.3164757 0.35127354 0.4669853 0.24643967 0.50072 0.13193054 0.4789722 -0.15279332 -0.3115421 0.44958925 0.4867157 -0.17767073 -0.11898641 -0.23132065 0.43779778 0.24576192 0.09624495 0.071780995 -0.08961256 0.07285391 0.22111978 0.15992573 0.031175926 -0.23435107 0.27749377 0.24780717 0.07285042 -0.031306714 -0.2809103 -0.20230259 0.34811443 0.3511507 0.087201625 0.021550566 0.40255994 -0.005712472 0.012052018 0.064341135 0.056487102 0.04021824 0.2117848 0.2343447 0.23288617 0.17784351 0.110421315 0.16078126 0.16343059 0.23607509 0.057100948 0.08678455 -0.024483457 0.35046482 0.19800694 0.07765511 0.008139748 0.012618542 -0.0029883385 0.41947913 0.3610413 0.09040901 0.18554571 0.48860872 0.14004639 0.29530886 0.3499285 0.5318041 0.5353974 0.33922562 0.39916992 0.4443274 0.48922473 0.5384088 0.5110587 0.5183686 0.36802387 0.2609548 0.14272353 0.41153818 0.41344264 0.43078548 0.39173588 0.4180802 0.4945752 0.30837092 0.20827293 0.12178454 0.07942346 -0.010943197 0.35644782 0.2676709 0.12750031 0.15601678 -0.02087338 0.10613719 -0.13436428 0.30198696 0.26942396 0.2958093 0.15578453 0.2287462 0.10919225 0.3036625 0.3736022 0.34466875 0.26388597 0.29216158 0.3008595 0.5198481 0.0150071345 0.08124617 0.21845219 0.61200124 -0.119615 -0.5280694 -0.09298202 0.06032762 -0.053670213 0.5419419 -0.16364063 -0.3539322 -0.047068533 -0.11330561 0.5220837 0.4688943 -0.17250338 -0.006915018 -0.23011905 0.74882567 0.7906407 0.7756895 0.75437844 0.73808414 0.15390015 -0.021195963 -0.15984306 -0.24126178 0.66199315 0.6295231 0.07594458 0.050988697 -0.23933932 -0.18000989 -0.38969266 -0.27910918 0.15078843 -0.20223048 0.08531088 0.21075991 0.316851 0.34041312 0.19739614 0.003583096 0.41123718 -0.12880968 -0.15486827 0.36190444 -0.13919415 -0.15876216 -0.34280488 0.29121217 0.33121213 -0.40396178 0.0704313 0.023411278 -0.32240972 -0.26317906 0.04538874 -0.0026667416 -0.21956098 0.2615409 0.21167633 0.2859918 0.30663145 0.3145845 0.11116873 0.06523281 0.07571302 0.17570305 0.18701686 0.15687507 0.046057932 0.07377881 0.102182955 0.31613654 0.1743261 0.054951444 0.05045317 0.09044709 0.19752267 0.26536512 0.29430133 0.09013128 0.092233285 0.10104379 0.024073787 0.47603595 0.24518701 0.18706211 0.34515062 0.09575344 0.08201574 0.012042582 0.08002271 0.07609781 0.25124186 0.5469152 0.28432208 0.3624026 0.38106632 0.48443162 0.5530418 0.5627891 0.5641509 0.291188 0.121995896 0.07893044 0.01585409 0.054944213 0.2857769 0.31971037 0.3034733 0.24442567 0.17236416 -0.08047984 0.0989308 0.2629571 -0.14920627 0.02668928 0.119303785 0.09114042 0.12233354 0.17169344 0.17272982 -0.018674798 0.22871092 0.1446561 0.12435725 0.21067315 0.29795995 0.04860183 0.17699124 -0.07106836 0.02165477 0.28602466 -0.067143016 -0.119218625 0.027922463 0.10918583 -0.08015408 -0.59939075 -0.2256101 0.6519444 0.71488225 0.6517302 0.059434522 0.04470682 -0.06979552 -0.08180544 -0.627685 -0.40969044 -0.3567543 -0.34347898 -0.22444764 0.52471316 0.5712655 0.620727 0.6191124 0.07017256 -0.4747387 -0.54589415 -0.31059417 -0.28126326 0.4112277 0.5194653 0.510014 0.59054154 0.08889718 0.4314296 0.459459 0.42471415 0.058298077 0.059731767 0.19404334 0.31857693 0.041372195 0.12243357 0.08727343 0.039152198 -0.018681535 0.053025544 -0.13010162 -0.120283164 0.20979674 0.06482877 -0.06726447 -0.132993 0.10164755 0.016266413 0.13153291 0.26162863 0.27901492 0.03803259 -0.05151893 -0.02208352 0.0016025528 0.005798325 0.25680643 0.2220187 0.027247593 0.081004806 0.11189487 0.094249755 0.07129713 0.31932622 0.025598116 0.38012913 -0.093637004 0.35723355 0.37067598 0.33574784 0.18039396 0.081893906 0.08261053 0.05836847 0.005523782 0.00025732757 0.49452043 0.068989396 0.0039515775 0.101702034 0.19877183 0.5693071 0.17324899 0.20595585 0.26054782 0.2791295 0.3451565 0.42947048 0.49293113 0.5518428 0.5863001 0.43164542 0.52012324 0.3843267 0.5074216 0.58360636 0.6489989 0.52880883 0.5484257 0.52389276 0.5060667 0.5207624 0.6761438 0.73300016 0.53150105 0.5619173 0.5768244 0.56482685 0.48615593 0.716573 0.7689481 0.5551985 0.580441 0.5939797 0.5975144 0.60365003 0.5939374 0.6027943 0.6057256 0.42323285 0.21737027 0.19207048 0.19669417 0.045918815 0.11694741 0.22769526 0.26380217 0.37942427 0.37435016 -0.01603236 0.06425173 0.15972117 0.2508415 0.2532493 0.22612755 0.3103249 0.32628623 0.075143136 0.06155584 0.20816647 0.116801515 0.25689763 0.19169962 0.27529895 0.19111528 0.2514711 0.26151535 0.27002463 -0.13281862 -0.21773708 0.07635526 0.1498334 0.14813188 -0.00026647002 0.025890442 0.20150912 0.23628074 0.036873117 0.42364475 0.3143968 0.18327674 0.31597447 0.31836563 0.3532769 0.020678967 0.3286823 -0.036641523 0.097669154 0.09530816 0.26338774 0.12750822 0.08353554 0.091863185 0.0756772 0.0545547 0.08772666 0.01714594 0.010667652 0.015125908 -0.027151078 0.65568066 0.7027044 0.7116907 -0.09566769 0.17411302 0.6224166 0.64765126 0.6887858 0.69681334 -0.014632031 0.6302578 0.6556487 0.04484716 0.5090866 -0.013476142 0.32175866 -0.040130164 0.2477395 -0.029191993 0.1182373 -0.024592582 -0.047851227 0.013157748 -0.046156384 -0.07450105 -0.03252604 -0.088496774 -0.16003221 -0.2601461 -0.042285025 0.20858127 0.10080088 -0.10122913 0.09061933 0.48697722 0.6442307 0.263787 0.09190826 0.533413 0.5775138 0.68019986 0.19179723 0.6834754 0.71133554 0.21808934 -0.23099002 0.24991179 0.58647215 0.75091875 0.76738244 0.2167746 0.14521502 -0.011700898 -0.025925877 -0.017417572 0.20526144 0.29270646 0.06009818 0.028441869 0.059520412 0.117989935 0.04254939 0.3001176 0.2926684 0.2641093 0.02874496 0.049145937 -0.04596958 -0.041995022 0.11589032 0.31545675 0.39566973 0.39067143 0.21905121 0.2811452 0.049795486 -0.0001432579 0.039967284 0.012959156 0.66310394 0.45570782 0.48928556 0.4648041 0.11608282 0.15862845 0.07741746 0.48526928 0.59391475 0.6461894 0.32087082 0.31645542 0.022303848 0.026842117 0.4369467 0.5649882 0.5988891 0.6778041 0.34602517 0.37037566 0.7169306 0.8204521 0.42850286 0.36303124 0.7852172 0.8538097 0.41560394 0.49707007 0.76026905 0.8207308 0.85547453 0.48141265 0.5204419 0.56458235 0.78530586 0.84950674 0.54264647 0.575629 0.60001945 0.60130787 0.5881014 0.5922428 0.38206342 0.2745514 0.2772279 0.21397477 0.40538287 0.35569358 0.28132653 0.22406673 0.16243458 0.12293269 0.3054564 0.2840325 0.26299965 0.22138442 0.0872777 0.061072603 0.039957024 0.43815652 0.43198156 0.15033478 0.22424267 0.0009146705 0.21479669 0.2820313 0.2297368 0.39444286 0.4222595 0.14412646 -0.013765164 0.19518065 0.3200489 0.34256577 0.12602893 0.046444304 -0.14825594 0.2383139 0.27498144 -0.27695245 -0.17795616 -0.008721497 -0.08047763 -0.06874807 -0.04397079 0.061873816 0.16219892 0.35033113 0.4384659 0.3224302 0.24792883 -0.17919555 -0.14785019 -0.08404811 -0.027104253 0.04044193 0.14848734 