# vtk DataFile Version 2.0
Really cool data
ASCII
DATASET POLYDATA
POINTS 5386 float
50.294945 37.764904 20.851507
50.224567 37.83884 21.430368
50.2755 37.947124 21.868929
50.111137 38.60389 20.866568
50.027077 38.575466 21.437628
50.24428 38.444855 22.03415
50.21115 39.057575 20.8847
50.16295 39.161465 21.433243
50.26118 39.092037 21.974796
51.363934 25.044338 -6.1680226
51.43609 24.89681 -5.955629
51.354298 25.48064 -7.02498
51.289246 25.506111 -6.606783
51.322147 25.594088 -5.7401333
51.360886 26.137228 -6.5997357
51.40223 26.10787 -5.53843
51.490574 27.046488 -5.1945877
51.298832 36.327045 20.456398
51.272953 36.3364 21.08552
51.057312 36.823013 20.22347
50.871548 36.82989 20.700083
50.841846 36.89289 21.407318
51.069866 37.033092 21.960407
50.847984 37.646194 20.072454
50.523342 37.540886 20.58868
50.45334 37.362484 21.162851
50.679523 37.70626 22.163473
50.689262 38.478115 20.14209
50.390755 38.400337 20.41832
50.601776 38.492664 22.433065
50.987736 38.498867 22.742659
50.868073 39.076042 20.13601
50.581715 39.353996 20.635712
50.386257 39.50604 21.320034
50.607204 39.234226 22.348198
51.209984 39.35203 23.03888
50.86993 39.754673 20.886549
50.770763 39.87113 21.506517
51.033787 39.766335 22.438715
52.468067 21.34082 0.679476
52.491985 21.50226 1.2292482
52.098007 24.100481 -7.3639593
51.93968 23.953075 -6.379346
52.012787 24.021313 -5.8793535
52.012264 24.743977 -7.821202
51.727276 24.718504 -7.3200827
51.56046 24.531454 -6.550174
51.740902 24.652565 -5.558093
52.0538 24.534597 -5.0645213
52.034992 25.605453 -8.125323
51.62729 25.478525 -7.5156474
51.779785 25.527172 -4.8565745
52.193535 25.487255 -4.1476026
52.17131 26.343603 -8.101744
51.707054 26.348211 -7.2504888
51.4907 26.43395 -6.342563
51.594692 26.402658 -5.628665
51.687393 26.555504 -4.554344
52.06215 26.579052 -3.8353841
52.154335 26.973173 -7.39746
52.03121 27.416586 -6.3450117
51.611595 27.450737 -5.3364415
51.671616 27.536034 -4.6125236
52.04221 27.417505 -3.7722356
52.18478 28.145388 -6.0086813
51.988968 28.543825 -5.2447186
51.956116 28.367926 -4.814745
52.05217 28.27293 -3.8545146
52.41171 28.831789 -3.0622675
52.32245 29.162952 -5.1102157
52.276947 29.304815 -4.355473
52.405437 29.467693 -3.3119397
52.42407 30.229958 -4.3658156
52.4174 30.028467 -3.8442864
51.74374 36.29027 19.921274
51.574986 36.00943 20.596142
51.625877 36.09747 21.150616
51.772907 36.25749 21.75629
51.36028 36.60871 20.050028
51.31006 36.656116 21.681784
51.58008 36.897057 22.179192
51.9285 37.60541 19.422796
51.58861 37.64885 19.625572
51.27625 37.367157 22.376295
51.768116 37.906456 22.970722
51.50182 38.268616 19.664503
51.72625 38.6155 23.354485
51.9293 39.003155 23.732527
51.839016 39.23764 19.770485
51.473076 39.44468 23.38805
52.06726 39.5781 23.933771
51.735687 39.892174 20.166695
51.52934 40.09965 20.73584
51.353664 40.15686 21.335382
51.485832 40.151478 22.516272
51.844177 40.3884 23.454462
52.081867 40.26833 23.909128
51.978046 40.657917 21.45112
52.174698 41.22567 22.353815
52.490242 43.182274 23.66293
53.39424 10.220235 3.9385207
53.310417 10.632348 3.7008655
53.308537 10.678601 4.1756625
53.26076 11.420361 3.6249235
53.243427 11.29003 4.3167386
53.31486 11.756286 4.8222027
53.314228 12.403303 3.7064793
53.2988 12.444087 4.3729854
53.43667 13.184399 3.817787
53.385544 13.13364 4.207106
53.43698 16.060589 9.7323475
53.381218 16.507046 9.7560625
53.371025 16.539808 10.279038
53.381023 17.136803 9.814186
53.408833 17.1307 10.329208
53.454613 18.86694 -3.0139382
53.347885 18.814047 -2.2868247
53.169487 19.019114 -1.3743494
52.93203 19.213814 -0.90194446
53.138763 19.264946 1.0711108
53.144833 19.609968 -2.2417521
52.842484 19.57515 -1.3479618
52.765198 19.64313 -0.7200824
52.943974 19.634436 0.51681435
53.074257 19.62222 1.2983947
53.263706 19.837076 2.1160119
53.09992 20.259348 -2.1251514
52.76048 20.281754 -1.4114175
52.619778 20.326118 -0.51837623
52.58945 20.615412 0.5624553
52.72099 20.648603 1.3124433
53.03006 20.504236 2.0227575
52.982254 21.225899 -1.3627368
52.7038 21.35673 -0.20643991
52.537952 21.725267 0.696664
52.6025 21.667118 1.4262921
52.884598 21.536106 2.1272926
53.025143 23.114372 -6.363494
52.93684 23.268757 -5.935959
53.149628 21.896936 -0.9580734
52.908478 22.11268 -0.3448428
52.816936 22.606174 0.53930134
52.737473 22.395864 1.3741277
53.036983 22.290346 2.172363
52.774036 23.927555 -8.021705
52.781277 23.649466 -7.473769
52.478813 23.514698 -6.686807
52.562706 23.512733 -5.782638
52.92 23.96345 -4.6808796
53.21271 22.805387 -0.13032866
52.927048 22.84818 0.55362254
53.090744 22.925016 1.314677
53.25247 22.794453 1.9470307
52.512543 24.364582 -8.197647
52.56162 24.626738 -4.308575
52.83274 24.72606 -3.8787699
52.783768 25.782934 -9.035025
52.450577 25.158941 -8.559992
52.72521 25.458796 -3.5953603
52.800674 26.175224 -8.924744
52.48938 26.586132 -3.3793468
52.968582 26.683283 -2.8903186
53.046436 26.781939 -8.821426
52.864437 27.176937 -8.300488
52.828636 27.58513 -2.648085
53.11814 27.528522 -2.273701
53.167725 28.57112 -6.842916
52.645203 28.462559 -6.157865
52.673916 28.6207 -2.7349992
53.044613 28.898476 -1.8145438
53.450943 30.170319 -7.6130586
52.892433 29.429838 -6.112591
52.68718 29.088713 -5.619515
52.819805 29.22614 -2.680879
53.094574 29.502691 -1.6296959
53.345993 29.293295 -1.1037625
53.383728 30.613802 -7.9390993
53.31785 30.611937 -7.545633
52.551743 30.439 -4.2051125
52.61246 30.219122 -3.592871
53.206093 30.609444 -2.2664948
53.186993 30.093735 -1.6728808
53.306828 31.311222 -8.255079
53.24388 31.517895 -7.3712025
53.09698 31.833971 -6.2185645
52.793232 31.636015 -5.4555674
52.76826 31.409101 -4.4795704
52.95304 31.246885 -3.6492774
53.220524 31.29584 -3.134387
53.271763 31.912586 6.0453076
53.174664 31.953907 6.5857153
53.191578 32.02719 7.2091155
53.298363 32.182632 17.801104
53.290146 32.00203 18.33552
53.387257 32.022675 -8.231902
53.317097 32.215122 -7.226673
53.12313 32.03681 -6.1526947
52.975067 32.201572 -5.2589684
53.009766 32.225998 -4.6877947
53.175743 32.54286 5.7260137
52.904266 32.565987 6.6448245
53.012104 32.56895 7.3312426
53.120567 32.98182 7.726503
53.127003 32.638184 17.731884
52.989418 32.77181 18.660795
53.148117 32.772175 19.234278
53.24877 33.01659 19.892618
53.122757 33.309093 5.967013
52.90951 33.30566 6.661527
52.948784 33.304142 7.286082
53.174862 33.23339 7.7958117
53.198128 33.601696 17.122444
52.897385 33.638985 17.684175
52.793106 33.53848 18.413044
52.99368 33.42498 19.465101
53.239136 33.574905 20.30814
53.22737 34.031757 6.6547227
53.23198 33.984066 7.386909
53.422913 34.097454 7.8692827
53.112514 34.36695 17.129837
52.962944 34.464504 17.505598
52.77676 34.20329 18.3961
53.191452 34.400948 20.483952
53.155167 35.042477 17.59949
52.5468 35.919056 19.769318
52.96373 35.60464 21.02866
52.931805 36.864727 19.533688
52.429768 36.97603 22.532934
52.448116 37.655373 19.586258
52.421143 38.596226 19.443283
52.511314 38.816128 19.604546
52.406845 39.00414 24.093578
52.67035 39.06923 19.441061
52.594757 39.413315 19.582428
53.27559 40.149704 24.753273
52.560772 40.086376 19.91193
52.30488 40.506428 20.605473
53.132607 40.847057 25.040745
52.817017 40.638603 20.239359
52.64753 40.841225 20.69182
52.511707 41.12239 21.629305
53.22604 42.523354 21.617506
52.56223 42.872185 22.912508
52.622406 42.509083 23.236612
52.673462 42.517612 24.534992
52.848938 42.06107 25.08617
53.240517 43.3106 22.065567
52.85065 43.80408 22.803015
52.605133 43.456676 24.452173
52.831257 43.79311 25.457878
53.16757 43.954834 25.949072
53.05289 44.48369 23.001623
52.807457 44.543015 23.61837
52.653694 44.2348 24.671968
52.77907 44.611244 25.004705
53.12195 44.66321 25.97192
53.13071 45.16603 23.588835
53.009926 45.252148 24.635365
52.99382 45.560276 25.647516
53.189407 45.488712 26.292274
53.221344 45.90692 24.82111
53.177574 46.236237 25.849033
53.322025 46.324127 26.471203
53.39507 46.16884 26.906134
53.425682 46.9623 25.921892
53.903378 10.097215 3.134245
53.71673 10.008544 3.6443007
53.90214 9.847797 4.35924
54.08425 10.035407 5.0563917
53.758537 10.550385 2.9886632
53.457905 10.38827 3.3425212
53.457317 10.377937 4.417695
53.713062 10.6231985 5.05595
54.14051 10.861503 5.7006884
53.799225 11.244087 2.8323464
53.60165 11.65549 5.221029
54.074413 11.476173 5.765785
53.870064 12.511423 2.9694571
53.487816 12.34781 3.340025
53.622536 12.57775 5.1929145
54.144905 12.452747 5.976761
53.708324 13.033033 3.193533
53.63921 13.514474 3.721323
53.62441 13.466236 4.4335027
53.739483 13.160619 5.158933
54.335896 13.150777 6.109111
54.0436 14.005955 4.5151906
54.224022 14.067528 5.1781588
54.246536 15.393714 10.262284
53.83634 15.944446 9.239967
53.780113 15.790573 9.652126
53.73752 15.85647 10.482436
54.011806 15.9844675 11.119651
53.633133 16.636778 9.123981
53.50071 16.42877 9.401979
53.523235 16.671019 10.709658
53.786064 16.546898 11.202944
54.226986 16.829926 11.828664
54.131054 17.958475 -4.108763
53.724022 17.927034 -3.2026129
53.868217 17.746096 -2.5990045
54.04807 17.793808 -1.1567882
53.95662 17.96941 -0.70137405
54.00229 17.487282 8.96545
53.59175 17.479862 9.665612
53.534946 17.4944 10.294204
53.84204 17.37809 11.219901
54.222694 17.403168 11.750206
54.386444 18.761618 -4.9704657
54.069477 18.72123 -4.344677
53.6318 18.34533 -3.3771677
53.49732 18.691666 -1.4716855
53.53509 18.748531 0.5384339
53.53038 18.981216 1.2619302
53.748337 19.200087 2.3939054
54.220276 19.104277 3.2207146
54.35608 19.069431 4.6897483
54.357662 18.890581 5.1359963
53.8233 17.822693 9.150539
53.998905 18.137774 9.571506
53.823544 17.96474 10.461954
54.169643 17.863895 11.385383
54.311935 19.59854 -4.505955
53.636253 19.460993 -3.147374
53.4789 19.62053 2.2559657
53.838894 19.80359 3.423633
54.055534 19.733538 4.7198043
54.06119 19.545906 5.262129
54.314434 19.719685 6.4299974
54.37856 21.14306 -7.47266
54.099094 20.609842 -6.455514
54.20226 20.551805 -5.3821087
53.517994 19.961271 -2.8783576
53.73944 20.472908 3.4429185
53.90128 20.562586 4.3177752
54.173733 20.457657 5.4846706
54.32686 20.573803 6.2288303
54.102318 21.2947 -7.1862316
[...]
POINT_DATA 5386
SCALARS features_00 float 1
LOOKUP_TABLE default
0.8375169 0.82628554 0.7877041 0.8827546 0.8667698 0.78372586 0.8438078 0.8271955 0.77876955 0.55048466 0.5447761 0.5616373 0.54645467 0.51213276 0.49873602 0.4790274 0.41626957 0.6516422 0.6349992 0.7073338 0.7078542 0.691751 0.65405864 0.7841592 0.8031102 0.7695071 0.6975754 0.81510293 0.8644204 0.6823598 0.5971495 0.7371582 0.76428974 0.7800195 0.69834566 0.53910375 0.6863239 0.7046061 0.6390371 0.5333588 0.5510978 0.52549547 0.50743663 0.49205363 0.563635 0.5741317 0.559982 0.5198642 0.47907588 0.5444707 0.56873894 0.47935012 0.40810382 0.4774263 0.49108136 0.46278498 0.46042496 0.43517214 0.37549594 0.38707107 0.33116618 0.38157153 0.38507974 0.3525104 0.25902116 0.29856384 0.32431087 0.32264948 0.26996958 0.26984596 0.2847076 0.26086885 0.23161253 0.24475771 0.63328475 0.6001095 0.57294345 0.5278635 0.67443085 0.6277575 0.57091415 0.5391791 0.6415578 0.60523987 0.4856166 0.6262572 0.4521726 0.39617583 0.5497718 0.47406948 0.3634327 0.5437401 0.55668956 0.5946864 0.57860065 0.40947115 0.33647126 0.461384 0.3843364 0.42086524 0.8928072 0.8720157 0.8454349 0.8012171 0.76923656 0.6700736 0.6945542 0.64138305 0.6286628 0.60995454 0.6729921 0.6642049 0.6879717 0.6442721 0.67650235 0.3132744 0.35996965 0.38211107 0.39011765 0.32964897 0.36989444 0.4042962 0.41199905 0.3845684 0.33640856 0.29520172 0.3732485 0.42634067 0.45661345 0.4591288 0.43893343 0.376222 0.42614365 0.5167354 0.56778526 0.56390667 0.5161078 0.28894368 0.31354582 0.45725855 0.533015 0.5992396 0.6011686 0.5559179 0.44951594 0.41282576 0.42500195 0.3989086 0.38303685 0.5617832 0.5977683 0.58363736 0.5590247 0.5112778 0.40246683 0.35627562 0.4101788 0.5202403 0.3198092 0.38714635 0.292749 0.17984469 0.32032758 0.31285822 0.19677743 0.13472208 0.0028524026 0.16742422 0.259949 0.25043613 0.20209086 0.117249094 0.20704791 0.26825052 0.2676398 0.24413617 0.31823233 0.29027894 0.22325079 0.2349273 0.21888709 0.2496291 0.44553348 0.40713167 0.30014914 0.25251782 0.22603615 0.20743209 0.19743346 0.47972083 0.52306616 0.5345838 0.6220501 0.6153812 0.5019716 0.4192861 0.3040523 0.2629499 0.2528701 0.5417357 0.6274807 0.60056645 0.56817245 0.64012504 0.6402496 0.56324166 0.44094872 0.5994085 0.6397935 0.61698586 0.561861 0.607214 0.63701296 0.6536658 0.503376 0.35721195 0.5867137 0.5878166 0.5673214 0.58095175 0.5870303 0.60358655 0.24758874 0.47182682 0.54327416 0.2829383 0.38432693 0.3776849 0.42959213 0.4519919 0.45685613 0.32966048 0.4395734 0.44286406 0.20289528 0.42861983 0.42941606 0.15892926 0.36375248 0.35323435 0.33452505 0.22019333 0.38184592 0.3554347 0.3879461 0.30085057 0.3432288 0.4220596 0.42248756 0.39155042 0.36282304 0.41134974 0.42539272 0.43070403 0.42997158 0.40861303 0.41529578 0.44271672 0.45649 0.44878876 0.46183455 0.50673616 0.526414 0.5183012 0.5590147 0.91534233 0.9114095 0.8812579 0.82659113 0.9014248 0.90118897 0.8601951 0.8031877 0.69780093 0.85548115 0.6392187 0.6035059 0.6986337 0.718163 0.5544566 0.51558805 0.65166944 0.59614635 0.56568015 0.53437686 0.47873855 0.4969987 0.46954772 0.64638495 0.61848587 0.66160727 0.70248926 0.697042 0.58597517 0.63589025 0.7072027 0.70868456 0.6276056 0.21517035 0.30379555 0.34310913 0.2968002 0.2970287 0.5085834 0.6151323 0.661441 0.68884146 0.62051284 0.1661419 0.20524152 0.28683555 0.3711529 0.31682965 0.27590925 0.2258105 0.17458007 0.2114394 0.20321195 0.543872 0.541132 0.6443789 0.63221097 0.15646082 0.28665963 0.26923335 0.2314513 0.25399894 0.25818428 0.25865883 0.20456551 0.24772955 0.20317659 0.29887372 0.26271802 0.24672872 0.25567234 0.22169708 0.20966469 0.19516161 0.14757587 0.03057241 0.21790633 0.29939917 0.3127791 0.16794726 0.18590984 0.12844098 0.16388689 0.05335051 0.30661404 0.50458 0.45233813 0.3075493 0.31450272 0.3132193 0.5323013 0.5073725 0.5328661 0.5275669 0.3012667 0.19059783 0.28453067 0.10349833 0.25562906 -0.0121181235 0.117000155 0.08727938 0.05594831 0.035693444 0.15210605 0.15833679 0.12853162 0.05127764 0.22851309 0.15370809 0.37431383 0.26071036 0.20740297 0.20029244 0.17770962 0.28188258 0.32593378 0.5056223 0.5204671 0.48343274 0.13147017 0.11523885 0.061363146 0.036007974 0.032225493 0.119044185 0.3024031 0.3930221 0.4369933 0.4156978 0.36530587 0.5218844 0.57813245 0.57854927 0.55165994 0.40222004 0.5520011 0.53018177 0.43106174 0.35130763 0.1412529 0.12596884 -0.029559925 0.099562556 0.19096333 0.15662158 0.11364977 0.15908271 0.37112847 0.43966156 0.5074795 0.5863339 0.6066855 0.36681664 0.2871132 0.5452403 0.51773155 0.4409518 0.30413753 0.25429714 0.25186294 0.23893704 0.28455567 0.2980679 0.26300955 0.43498233 0.51666075 0.50128126 0.4582369 0.58381045 0.32801047 0.290659 0.1456607 0.3247276 0.3594177 0.34820017 0.29856193 0.2788241 0.44274342 0.5478877 0.57791317 0.557062 0.51201385 0.50816727 0.2136468 0.32989997 0.35559922 0.31567824 0.54701644 0.5686898 0.5673506 0.39024615 0.5541656 0.18308151 0.015386546 -0.0045444407 0.12950929 0.17608929 0.34827837 0.20280403 0.15286139 0.33293867 0.17040041 0.3109458 0.11891246 0.09464941 0.26825875 0.1339876 0.13480568 0.24409297 0.31214684 0.33870414 0.39746648 0.31900173 0.3379788 0.40213427 0.49436268 0.47916508 0.37060708 0.45482957 0.5554324 0.5870441 0.43518513 0.50388 0.6107551 0.62438375 0.64095175 0.5152075 0.61142653 0.6335665 0.82187486 0.8126831 0.7615067 0.89265305 0.8833687 0.8333682 0.76080453 0.9019742 0.66115445 0.5747543 0.55895406 0.5749027 0.5925034 0.8452226 0.5224315 0.5471556 0.543111 0.5631546 0.6005794 0.6436168 0.66688246 0.48567772 0.44885316 0.47520196 0.47857314 0.5087816 0.5539155 0.57822484 0.47024095 0.40312153 0.40517306 0.4586128 0.45693547 0.45245528 0.44430533 0.37723535 0.559795 0.5313051 0.5250327 0.04638651 0.15178347 0.49140245 0.6000277 0.5706804 0.12676573 0.16235954 0.22829291 0.18112849 0.17569916 0.01876641 -0.00339742 0.58125025 0.14108223 0.20063478 0.2657532 0.18854779 0.1678904 -0.0027920455 0.035663202 -0.023443848 0.55130774 0.13028248 0.14737423 0.09505369 0.1067192 0.13334908 0.20270857 0.28366312 0.5494041 0.22589836 0.19138326 0.15992129 0.20776981 0.058698207 0.20841128 0.15370691 0.47217643 0.44469664 0.3680464 -0.055884592 0.0891817 0.13027218 0.064926624 0.23125812 0.33834207 0.35168636 0.4257534 0.44240186 0.4233214 0.2002371 -0.13157408 -0.21185884 0.22834489 0.28801262 -0.01122803 0.16803613 0.29309934 0.35985017 0.3657962 0.33836913 0.37810856 0.37731522 0.17183058 0.35625285 0.4015279 0.35895348 0.024184873 0.25025135 0.34867418 0.37258154 0.32474554 0.310625 0.26328224 -0.09871074 0.40643358 0.096335866 0.10961423 0.5419229 0.62450564 0.6517123 0.22512347 0.2278125 0.15723343 -0.016855767 -0.030854223 0.1196435 0.620183 0.6896077 0.6943029 0.6301138 -0.04129976 0.00084555894 -0.0010698736 -0.01592372 -0.051485606 0.42422193 0.56759214 0.66072065 0.68305784 0.5944962 0.052045446 0.0035935543 -0.032597065 0.031559385 0.25681886 0.45044345 0.55859125 0.5408526 -0.012872934 -0.04057045 0.079870835 0.03668882 0.20696363 0.19673505 0.36047578 0.41580528 0.41691333 0.09694326 0.13438869 0.15127128 -0.10304995 -0.050294153 -0.013947926 0.14810239 0.22153288 0.3007006 0.31169465 0.28945547 0.3891853 -0.10711747 -0.1080134 -0.13052303 -0.112438455 0.2030618 0.23588175 0.113427185 0.24288473 0.30487877 0.2933789 0.2725367 0.43576232 0.43224853 0.50887537 -0.037930768 -0.026982881 -0.049476888 0.117280975 0.26841846 0.2687415 0.20852259 0.19118863 0.46448845 0.33786476 0.53193694 0.5480782 0.15574017 0.4634787 0.29161805 0.24138665 0.5121032 0.5006237 0.3626029 0.16561215 0.5142387 0.21574801 0.37646964 0.27408436 0.13425437 0.15544768 0.042848177 0.43877202 0.4703219 0.035929848 0.35220256 0.3194504 0.31018078 0.22922602 0.16028294 0.27969256 0.32216537 0.32925138 0.2713824 0.23068139 0.3811831 0.51065433 0.539587 0.4963721 0.3868533 0.39784876 0.3800853 0.28735712 0.33729303 0.3469072 0.3265984 0.25290588 0.46549082 0.5003613 0.5338 -0.0047734827 -0.06120988 -0.060106747 0.33373004 -0.051673777 0.020642398 0.07029267 0.09443253 0.0756957 0.22600774 0.016826082 0.17724988 0.060616054 0.0353636 0.6417527 0.6909541 0.6835109 0.6813774 0.067767315 0.06643796 0.5090923 0.69651705 0.6876546 0.68096375 0.039678298 -0.09824322 0.6572081 0.6948254 0.6799859 0.11739987 0.1503095 0.24863422 0.38425627 0.38111395 0.4742729 0.52072775 0.24032764 0.58350444 0.3750294 0.39820555 0.6445474 0.65424937 0.65672237 0.4690228 0.53054744 0.6183117 0.6436304 0.65772927 0.64380544 0.76034105 0.8305277 0.7463699 0.7398815 0.72277987 0.644631 0.648949 0.627532 0.5846905 0.52957284 0.48528263 0.39970243 0.83969915 0.56250906 0.4301934 0.6521605 0.5980948 0.5619497 0.55817735 0.5294893 0.46764255 0.45921117 0.61303973 0.5503243 0.41024286 0.41433054 0.32888806 0.47525555 0.40473738 0.59879214 -0.077531844 0.33694935 0.32566252 0.32305387 0.27825576 0.24120238 0.38518322 0.43821126 0.0708946 0.19748211 0.2845683 0.029339932 -0.12550187 -0.02499582 0.48471385 0.47719723 0.062290996 0.081722096 0.08474351 -0.12937494 -0.07069169 -0.090804815 -0.0054304833 0.50879836 0.48353413 0.10250449 0.13043667 0.08827124 0.015679367 0.013377234 0.48175374 0.45758435 0.12604488 0.43689844 0.087342374 0.36669773 0.5018842 0.4529828 0.34570652 0.12755221 0.27043292 0.49876 0.50396293 0.4920755 0.46674097 0.3152992 0.25020552 0.46218956 0.4499807 0.30803567 0.34837857 0.3858412 -0.023492228 -0.009806803 -0.012466539 0.074704215 0.27831867 0.007901683 0.40382248 0.33541283 0.32004642 -0.15806337 -0.124584526 0.026243145 0.1416829 0.105130136 0.0733269 0.28737366 0.2763407 0.50102603 0.54302895 0.55454624 0.55779266 0.1832189 -0.33643633 -0.17062518 -0.087357104 0.08084975 0.13758685 0.15183121 0.0753138 0.5272654 0.15972474 0.03736908 -0.0871724 -0.15196376 -0.028566137 0.14302284 0.13173883 0.07922479 0.41097867 0.5488672 0.44599184 -0.021317696 -0.111268476 -0.004182603 0.015405498 0.03237616 0.0088742 -0.07962262 0.08852821 0.4303021 0.40503263 0.42349795 0.07201793 -0.07067281 0.014593191 -0.048644327 0.01568973 0.11786957 0.095759965 0.106490694 0.24996102 0.3044399 0.28016788 0.12792173 0.096068755 -0.034023866 -0.17786714 0.06893476 0.25695166 0.23820099 0.08175254 0.10063592 0.28339636 0.01531909 0.11587501 -0.04955931 0.07758488 0.021071693 0.157895 0.35468298 0.18967399 0.010019496 -0.0017732009 0.0012940839 0.052994113 0.48209846 0.025935868 -0.017864201 -0.015419744 0.044310942 0.044419713 0.1214975 0.07201579 0.4578209 0.46309987 0.40402618 -0.065311246 0.051149864 0.115912735 0.251038 0.10614009 -0.009416923 0.034807775 0.12953942 0.11431985 0.24079768 0.32400313 0.018842459 0.2493146 0.4536774 0.016209245 0.12238394 0.40214527 0.42665583 0.4022229 0.21951212 0.2809214 0.28700995 0.19298644 0.35140526 0.42223185 0.49559164 0.031115845 -0.07531208 0.053727612 0.41518754 0.4308566 0.4140006 0.27110642 0.24383675 0.30734617 0.3157041 0.12437558 0.049493037 -0.0083714295 0.059686758 -0.043062855 0.095521495 0.10479166 -0.102450095 0.020057343 0.46607298 0.60614973 0.6274438 0.6613307 0.6612641 0.02502466 0.09204905 0.6656486 0.011863639 0.6557288 0.6530913 0.10993927 0.111377314 0.621912 0.65270436 0.37070826 0.25517514 0.43775564 0.4861486 0.3872792 0.36913216 0.588315 0.4264531 0.37147444 0.67740685 0.67292714 0.41123763 0.5579443 0.66029036 0.6699711 0.6146982 0.6551707 0.66293776 0.6441318 0.584977 0.5077471 0.6712303 0.6368028 0.6931186 0.6730156 0.6434001 0.6031648 0.43237188 0.3358627 0.37690237 0.6933973 0.6143598 0.5550206 0.4330204 0.33306104 0.70133615 0.67803156 0.13624203 0.6650885 0.04586605 -0.15927175 0.54362035 0.43537825 0.09128074 -0.061230674 -0.07262738 0.19677833 0.19342479 0.26954347 0.20967329 -0.065654464 -0.13373892 -0.053749703 0.38727874 0.42217654 0.08796126 0.11364347 -0.16231802 0.44056112 0.47220844 0.08338058 -0.1358962 -0.18831502 0.4925503 0.06824058 -0.2106537 0.46960104 0.43616974 0.351546 0.51319706 0.4969381 0.35646808 -0.024962068 0.5186869 0.5267801 0.04508377 0.062034406 0.43630823 -0.023220412 0.30643356 0.063431494 0.28150326 0.28637904 0.12600273 -0.13659376 0.37662107 0.34085807 0.23340562 -0.06439832 -0.3487787 -0.3799517 -0.13434434 0.38109687 0.34654337 0.34919623 0.15802567 -0.1841266 0.3490942 0.23955245 0.30569887 0.48283553 0.3850847 0.3433969 0.21321084 0.24074048 0.23141381 0.3327344 0.3875966 0.41523457 0.4997368 0.4597183 0.25276792 -0.09928882 -0.19116643 -0.17892203 0.054731894 0.25024307 0.32211292 0.34546012 0.40229824 0.36020234 0.51304585 0.46641564 0.3904493 0.25655085 -0.24791597 -0.23568422 -0.09130581 -0.064638145 0.24026248 0.33010602 0.39753795 -0.16932398 -0.03206318 0.017228013 -0.043098345 0.40875462 -0.15654713 -0.073660366 0.41249463 0.39825755 0.3859728 -0.012795672 -0.051675394 0.043893836 0.12506333 0.21291393 0.029556468 -0.041492216 -0.022015784 -0.023299731 0.16598904 0.33892483 0.019867122 0.022462375 -0.008142315 -0.026395695 0.021404197 0.015933972 0.15078722 0.3518067 0.36599633 -0.010921471 -0.070838995 0.06509685 0.25982213 0.06398038 0.083782226 0.13341448 0.1471191 0.3375137 0.37814072 0.40006286 0.35222435 0.2638396 0.17631125 0.15291806 0.24942772 0.24625815 0.108726144 0.31211057 0.28738526 0.22295693 0.08008762 0.112884775 0.2272917 0.1845271 0.3317408 0.2707206 0.21226414 0.14711925 0.09179488 0.11757412 0.0924427 0.035715073 0.1265625 0.35962215 0.27453727 0.20715018 0.10402299 0.13531011 0.100604236 -0.14246824 0.13415694 0.42711854 0.5011518 0.33834225 0.2350763 0.23911677 0.24503326 0.20731746 -0.022101339 0.6254267 0.32706505 0.39309907 0.39418653 -0.01020845 0.6247462 0.51071846 0.50043714 0.49463862 -0.014941175 -0.0016184561 0.60768455 0.53496104 -0.1213897 0.023909524 0.44850966 0.5574912 0.16460824 0.3479994 0.42262423 0.4111974 0.5037902 0.4909705 0.65129507 0.57387733 0.5415697 0.5223354 0.603426 0.63403755 0.6146987 0.5758761 0.61451876 0.66683346 0.6454059 0.5887644 0.6987636 0.6818615 0.34849608 0.14219154 -0.053724155 -0.037038594 0.25105387 0.7098861 0.0647039 0.029571824 0.6627915 0.08513389 -0.04969222 0.029294273 0.53738296 0.40828812 -0.14294997 0.3066765 0.3583717 0.45646888 0.4922307 0.04071655 0.46559852 0.0168963 -0.011885961 -0.07400067 0.4442147 0.41145286 0.37338156 -0.1420191 0.32171473 0.34225726 0.21509364 0.30282012 0.30553868 0.22508112 0.27110445 -0.048389778 0.16178642 0.26370996 0.03948791 0.2262033 0.224041 0.23614067 0.11908401 0.30321568 0.39291537 0.10786914 0.22875896 0.30619323 0.36832112 0.3600452 0.48066407 0.47927788 0.3930697 0.3956381 0.35575902 0.5081967 0.5260864 0.386918 0.52966094 0.49133652 0.44556814 0.29700243 0.1715737 0.14529613 0.34629282 0.23551092 -0.04607957 0.080002815 0.28404543 0.24520494 0.12548558 -0.06765811 0.14168525 0.15627511 0.22469947 -0.062174983 -0.079160996 0.15066466 0.3276207 -0.009508158 -0.21690598 -0.26777428 -0.1372147 0.022036232 0.3157596 0.3005744 0.2830084 0.03607902 0.06788363 -0.14768103 0.22222471 0.26878864 0.18102184 0.1257043 0.12354484 0.13895054 0.057108402 0.4150397 0.080562174 0.022808041 0.08524268 0.3094672 0.35545194 0.43880498 0.061749313 0.10095155 -0.20010366 0.43837202 0.4857102 0.4436594 0.43926245 0.37946498 0.16974385 0.1321247 0.04028696 -0.38558525 0.55578166 0.49155426 0.38261306 0.33015078 0.39956295 0.29448614 0.28929487 0.55605626 0.40475422 0.4759251 0.47201812 0.40337825 -0.11803107 0.45878088 0.47250453 0.5226534 0.5466185 0.50794697 0.45124167 0.41012442 0.54124045 0.5382967 0.48862988 0.10257968 -0.04469806 0.53064644 0.50205123 0.53733647 0.5264935 0.5771037 0.6129756 0.61655664 0.21845207 0.3334327 0.5079442 0.55664253 0.6527004 0.6700728 0.67875767 0.49250352 0.65952563 0.637202 0.5682598 0.4308995 0.09219673 0.11372573 0.06617744 0.28945345 0.33529434 0.6881511 0.66836053 0.38907257 0.08703553 0.0573192 0.021228828 0.0050862357 -0.016359791 0.031814486 0.27494094 0.277151 0.6799601 -0.010323105 0.21927163 0.61605746 0.13382751 0.040463984 0.45930392 0.2334869 0.15872216 0.0042788833 0.3822044 0.16093278 0.45082933 0.14079376 0.39178705 0.103955865 0.07664727 0.32798284 0.022703536 0.30178523 0.41164953 0.53732455 0.5295967 0.461382 0.24757957 -0.023022156 0.41624856 0.41755387 0.5108645 0.47286677 0.38932884 0.019991249 0.3599882 0.4089061 0.47938687 0.37362581 0.42326522 0.31990135 0.14231935 0.28149775 0.36755803 0.170246 -0.09142646 0.023185007 0.15666947 0.020846203 -0.054813683 -0.0278088 0.14605027 0.25472102 0.2759753 0.30674538 0.25822496 0.4246168 0.3338408 0.30904406 0.49036998 0.27313694 0.53456104 0.49996722 0.35637444 -0.09169448 -0.01011714 0.15714234 0.03485534 0.048271045 -0.010315999 0.045658987 0.07864328 0.17614795 -0.37585837 0.10871228 0.2197896 0.23290119 -0.20760821 -0.0089800395 0.250722 0.22254525 -0.07093681 -0.06397179 -0.16887954 -0.17841192 0.3041299 0.1915791 0.15178192 0.059588816 0.08280101 0.08520774 0.11609685 0.3872776 -0.012874745 -0.08823447 0.27978444 0.42437744 -0.37038162 -0.45607096 0.4122668 0.74371266 0.42590874 0.42863974 -0.2106413 -0.26182812 0.45298463 0.38359737 0.40072 0.09090674 -0.10211043 -0.21543457 0.4387419 0.30969912 0.38630828 0.30455709 0.15568666 0.050949093 0.03950783 -0.113368854 0.42965037 0.44731516 0.46589765 0.4392377 0.36740023 0.22978467 0.14335822 0.09911081 0.04611861 0.13908543 0.38775158 0.49406558 0.48106378 0.45022708 0.39545536 0.16969451 0.013574751 0.23883702 0.22671437 0.3917805 0.27329785 0.5186255 0.43132633 0.5556126 0.62223583 0.14457434 0.39850086 0.4401124 0.66115874 0.7038096 0.67335665 0.19880594 0.2041173 0.21098585 0.23161584 0.32923627 0.35677707 0.38571048 0.6339357 0.13368188 0.1873835 0.14537501 0.3687065 0.35932612 0.33115783 0.6619483 0.6507889 0.6176691 0.08258958 0.048206754 0.016651005 0.07075808 0.2948804 0.28479868 0.6325963 0.2431961 0.23861478 0.56789553 0.44617158 0.0244127 0.24814504 0.3809151 0.030749694 0.098958254 0.3123243 0.06156542 0.15588908 0.58357674 0.5797181 0.5566436 0.3040626 -0.053379737 0.37229759 0.45858264 0.5629571 0.5645981 0.38410443 0.034829784 -0.036292065 0.48006165 0.5193381 0.5217762 0.45698017 0.4928677 0.40770304 0.41864628 0.45682132 0.24147037 0.44372588 0.38554353 0.0069428384 -0.077746175 0.42294726 -0.1764112 0.31080115 -0.14776951 0.18158111 0.15306965 0.123981714 0.21447422 0.20876072 0.19553031 0.124199 0.15634298 0.53006226 0.06365607 0.2319372 0.28128523 0.28287458 -0.06632174 -0.12660484 0.12626724 0.22134487 0.288567 0.117369175 -0.23697308 0.064701766 0.06491335 0.024227347 -0.22989105 0.16554904 0.11523007 -0.037663504 -0.21735033 0.21606746 0.21917236 0.16944064 -0.10408104 0.32549927 0.09767204 0.18788461 0.21301158 0.448794 0.55715793 0.5272704 0.21820506 0.26035076 0.38303024 0.35155714 0.38610616 0.3561808 0.69586754 0.73255205 0.8024963 0.7920002 0.36526972 -0.26201952 0.36637598 0.8409176 0.8756585 0.84690744 0.3683475 0.3180349 0.39354163 0.23904899 0.36766773 0.3061368 0.31702578 0.15835527 0.16587876 0.0674657 0.2210411 0.36678067 0.43406343 0.39388666 0.3179405 0.19967365 0.16836187 0.042367205 -0.08914279 0.3541693 -0.015308135 0.012834914 -0.04962068 0.4877036 0.096654035 0.28642905 0.52815354 0.5876359 0.28664073 0.17695794 0.31816757 0.6237026 0.6198876 0.5636003 0.20876133 0.21092236 0.20291066 0.18424591 0.19327044 0.27947962 0.34366533 0.37772542 0.39193845 0.37551364 0.117111474 0.19926476 0.36412942 0.3291266 0.62747514 0.59777194 0.5353448 0.104029134 0.30785954 0.2871467 0.606937 0.6142314 0.21533808 0.5479759 0.53294176 0.17124416 0.5280007 0.55025935 0.502339 0.43633994 0.31557482 0.47582212 0.56676376 0.42609406 0.5054087 -0.0450209 0.43892157 0.080713615 0.069732755 -0.029538773 0.15291774 0.10913877 -0.02672587 0.558506 0.08954784 -0.04122971 0.123687945 0.59675336 0.5891017 0.5425213 0.09652521 0.46080163 0.55365676 0.5725796 0.47552347 0.5091417 0.4802598 0.44383812 0.48717803 0.39789373 0.4693219 0.4782772 0.46682385 0.45479986 -0.21663319 0.38783908 0.28849846 -0.23247178 -0.21369028 0.0320296 0.15769988 0.15715596 0.19019648 0.17594957 0.17991693 0.18238369 0.13693708 0.11725925 0.11976789 0.15015087 0.20137796 0.39036617 0.32350403 0.35897