# vtk DataFile Version 2.0
Really cool data
ASCII
DATASET POLYDATA
POINTS 5637 float
4.3179073 -11.106394 60.606316
4.329063 -11.001829 61.289192
4.2522135 -10.459012 60.165516
4.158598 -10.564563 60.46952
4.132676 -10.535411 61.08769
4.3406672 -10.234603 62.177933
4.423322 -9.426638 58.969402
4.330367 -9.649484 59.488052
4.0063276 -9.299741 60.726322
4.086345 -9.507332 61.38331
4.3084097 -9.730796 62.20029
4.1672797 -8.299639 59.894047
4.069585 -8.444958 60.42859
4.1187377 -8.568893 61.20658
4.3242936 -8.535323 61.858223
4.3588123 -7.983176 59.787113
4.269031 -7.904655 60.468628
4.1933546 -8.099708 61.2226
4.9345026 -11.570765 60.667816
5.074734 -10.955519 59.018097
4.974415 -10.968008 59.154568
4.5889525 -11.271194 60.569386
4.6641088 -11.297232 61.48465
4.8131967 -11.0418415 62.186592
5.1164575 -10.847553 62.73881
5.093889 -10.39481 57.771397
4.70875 -10.185046 58.405064
4.507226 -10.247633 59.22661
4.501669 -10.520511 62.36201
4.9546275 -10.354032 62.857967
4.967344 -9.537061 57.816105
4.670768 -9.390133 58.28918
4.5875335 -9.901331 62.61357
4.829835 -9.53448 62.893906
5.2341833 -8.9729595 57.71557
4.6995826 -8.549931 58.855015
4.7793036 -8.583896 62.647835
5.0561447 -8.538333 62.98743
4.626239 -7.7039585 59.755054
4.516859 -7.5240498 60.45313
4.6352763 -7.467214 61.424725
4.9327607 -7.7837667 62.420776
5.1632214 -7.6316714 62.788574
4.802244 -7.2784567 60.09283
4.8137207 -7.2015305 60.545547
4.8126073 -7.201394 61.398617
5.2757955 -6.825893 61.99797
5.608361 -11.654064 60.011086
5.4228916 -11.736312 60.388813
5.742927 -11.92422 61.4892
5.938705 -11.868703 62.015625
5.60742 -11.417043 62.366467
5.4655485 -10.952295 62.780033
5.6699915 -10.344696 57.1019
5.482881 -10.303572 63.136982
5.558761 -9.42217 57.030693
5.7482157 -9.319531 63.377678
5.891542 -9.082578 56.844658
5.3911147 -8.658746 57.684967
5.839568 -8.243031 63.456394
5.9182587 -8.184587 57.330738
5.382107 -7.7513795 58.59769
5.642452 -7.532727 63.10024
5.8957515 -7.1663227 59.025726
5.646944 -7.1756268 59.379715
5.66809 -6.7946463 60.85907
5.726634 -6.6369376 61.643433
5.6708775 -6.839082 62.37801
5.801918 -7.1984963 63.037563
7.358122 -12.742228 55.18845
7.1422625 -12.359872 56.722935
6.6336884 -12.254973 61.514515
6.685449 -11.996541 62.108776
7.006896 -11.197908 54.89578
6.8221 -11.273311 55.534588
6.324296 -11.450934 62.557205
6.408518 -11.3486595 62.657215
7.0922136 -10.612184 54.76321
6.6479483 -10.782325 56.090927
6.199524 -10.533068 63.07978
6.5873866 -9.980773 56.09927
6.711832 -8.792828 56.085014
6.5013127 -9.040103 56.377567
6.5763273 -8.251794 63.66775
7.2009654 -8.03563 56.08719
6.5861483 -7.365302 57.516365
6.5092635 -7.4148116 63.531815
6.5047383 -7.7306943 63.629356
7.2277474 -7.178513 56.598373
7.339342 -6.2492223 57.214806
6.734766 -6.625446 59.8704
6.487355 -6.609646 60.974377
6.133532 -6.494857 61.745605
6.317891 -6.757325 62.75075
6.421242 -7.0409675 63.170807
8.146461 -13.638967 55.10002
8.1159315 -13.184503 54.243507
8.021347 -13.370553 54.67365
7.7431 -13.276271 55.255688
8.162079 -12.733762 57.58682
8.0039015 -12.3431835 54.048634
7.5711193 -12.4290085 54.625187
7.3148518 -12.443803 57.2894
7.265504 -12.134974 57.925392
7.163178 -12.336707 61.58128
7.1511254 -12.023218 62.049606
7.6800776 -11.467034 54.205414
7.3989964 -11.68561 54.545773
7.161692 -10.988971 62.630646
7.9086847 -10.483776 54.14356
7.3916945 -10.24201 62.633232
7.4238524 -9.131979 63.08794
7.35186 -8.878798 55.643993
7.194542 -8.222343 63.659138
7.308558 -7.7200184 56.31488
7.2370396 -7.6045876 63.633007
7.913715 -6.4154983 56.51471
7.0538297 -7.2099037 63.32759
7.947629 -5.7369137 57.06826
7.683929 -5.789841 57.552185
7.6416054 -5.9337835 58.504635
7.796823 -6.3672566 59.336094
8.987532 -13.843103 54.69053
8.496253 -13.835859 55.402927
9.132828 -13.031691 53.214226
8.914218 -13.322148 53.76528
8.396602 -13.513409 54.482822
8.97389 -13.117125 57.333767
9.263482 -13.007332 57.896103
9.029891 -12.469561 53.17958
8.72343 -12.377008 53.475437
8.994224 -11.474949 53.293682
8.662999 -11.182944 53.629543
8.024118 -11.159474 62.01489
7.835399 -10.1250515 62.35965
8.642205 -9.911884 54.15648
8.147796 -9.69808 54.52301
8.240448 -9.625586 62.233967
8.651894 -8.611227 55.480465
8.400868 -8.798943 62.561874
8.836435 -7.722934 55.873493
8.278345 -6.7520967 56.258926
8.230356 -6.3559003 56.440483
8.813018 -6.894153 62.130703
9.0870905 -5.8597755 56.222134
8.350576 -5.652583 56.79423
8.930257 -6.1268806 61.244404
9.026245 -4.803978 57.100693
10.241086 -15.122374 58.708992
10.387577 -15.009834 59.505737
9.687932 -13.658346 53.573177
9.428346 -13.939305 54.651745
9.536707 -14.1049 55.33122
10.372709 -14.324396 59.48022
9.67183 -13.119839 53.02594
9.296392 -13.307933 53.432793
10.287152 -13.161899 59.39526
9.64092 -12.59775 52.834282
9.840288 -11.674107 52.85471
9.43616 -10.501798 53.597416
9.629086 -9.838971 62.05391
9.71874 -9.160651 54.99856
9.451991 -8.640835 55.60665
9.845991 -8.188708 62.730022
10.2517185 -7.187839 51.498684
10.290963 -7.171114 52.182304
10.299448 -6.216189 51.038948
10.19614 -6.620322 51.42878
10.256869 -5.5377684 51.550182
10.422635 -5.655348 53.35685
9.840423 -5.518294 56.116474
9.34317 -5.5972795 59.946636
9.589936 -5.8124495 61.508408
10.336028 -4.7594337 51.8189
10.215717 -4.782923 52.739902
10.334095 -4.6969643 53.24583
9.782376 -4.3831506 56.431915
10.27324 -4.0893264 62.99992
10.043867 -4.213871 63.79102
10.120097 -4.2322493 64.437584
10.378024 -4.3462567 64.914795
10.402905 -4.065574 52.51621
10.235603 -3.3086 56.206543
9.746583 -3.5207467 56.83085
9.663414 -3.56665 57.287437
9.901942 -3.705958 58.250874
10.323872 -3.7633657 63.07004
10.1425085 -3.5240936 63.556004
10.186474 -3.407679 64.30775
10.322673 -3.5519025 64.80615
10.068107 -2.9811335 56.788395
10.198923 -2.730712 57.20441
10.27858 -2.8404927 57.978024
10.303247 -2.9888163 64.20691
10.4192295 1.731729 51.081436
10.246069 1.9136407 51.635334
10.305119 1.950537 52.15114
10.368802 2.7120247 50.652348
10.076932 2.4807436 51.65554
10.143141 2.5279932 52.152023
10.0437355 4.0333266 50.840885
10.059109 3.4336011 51.673603
10.141784 3.3844543 52.134895
10.204706 4.827007 50.095356
9.979882 4.723618 51.76875
10.050261 4.9305615 52.073975
10.312588 5.471344 49.9271
10.072986 5.3814983 50.40397
9.94 5.3766756 51.49314
10.215423 5.3259487 52.13862
10.361849 5.9400997 50.00006
10.119444 5.9513683 50.886017
10.189334 6.016349 51.350452
10.882127 -15.773116 57.998344
10.973469 -16.00527 58.69326
11.007015 -16.04518 59.32105
11.044987 -15.851802 59.87143
10.760099 -15.088717 56.985207
10.5568695 -15.497077 58.706146
10.616785 -15.562295 59.46401
11.010063 -15.509589 60.065228
10.516053 -13.891737 53.662647
10.51601 -14.4023075 55.6645
10.517651 -14.264877 59.66639
10.827078 -14.765895 60.040146
10.476679 -13.313045 53.019104
11.050516 -13.941606 60.22293
10.455868 -12.563951 52.72451
10.940699 -12.166635 60.72574
10.549603 -11.801429 52.86921
10.672064 -11.265672 61.305065
10.220623 -10.61837 53.3897
10.963839 -9.565373 63.31087
11.173969 -8.903222 63.67923
10.941887 -7.734481 50.871838
10.527442 -8.788587 63.1522
11.069954 -7.00793 50.323475
10.731439 -7.445643 50.85275
10.4613285 -7.5528913 52.063587
10.823252 -7.364066 52.697197
10.84999 -7.9604273 63.669724
11.092513 -6.469496 50.21697
10.591921 -6.628385 50.67845
10.287703 -6.5782847 55.671604
10.861955 -6.963228 63.49887
11.279812 -5.417158 50.197987
10.565043 -5.6024866 50.883255
10.681244 -5.30427 53.885025
10.836976 -5.487051 64.27014
10.899186 -5.1080093 64.92959
10.9645195 -4.6542816 50.902386
10.540666 -4.447804 51.591217
10.5876045 -4.338999 53.521248
10.700341 -4.546901 55.681072
10.824976 -4.267846 65.2805
10.973329 -3.404068 51.987373
10.573397 -3.8211513 52.501915
10.456642 -3.3561409 58.52438
10.685979 -3.5491104 62.63776
10.407728 -3.2020926 64.68767
10.903819 -3.642486 65.37387
11.302604 -2.9258864 52.453716
10.612192 -2.6772301 56.472107
10.46839 -2.5437121 57.550022
10.6137495 -2.7171884 58.23078
11.022434 -2.6832728 58.794567
10.903362 -2.6845152 62.98552
10.598475 -2.6201782 63.659775
10.645539 -2.6791294 64.46969
10.904761 -2.8261495 64.995186
11.014542 -2.2672148 57.51588
11.204571 -2.2535179 58.03381
11.012501 -2.2470334 63.6021
11.031443 -2.2426407 64.24284
11.133077 0.7211313 50.593925
10.771085 0.9639894 51.651176
10.949628 1.1447415 52.37927
10.9452 1.8637148 50.20811
10.707655 1.6140144 50.539
10.560595 1.2738299 51.55927
11.338881 2.1574566 49.29548
10.470706 2.586226 50.47026
10.642242 2.5837147 52.863354
10.557198 3.1652138 50.500843
10.436127 3.0578673 52.63956
10.668575 3.1612248 52.888313
11.0113125 4.7602115 49.171234
10.602343 4.812444 49.543972
10.701407 4.7774653 52.718445
10.868786 5.3880076 49.290127
10.552279 5.531575 49.63582
10.584453 5.331023 52.466156
10.737677 6.0888333 49.82918
10.565994 6.4674244 50.575653
10.590673 6.458782 51.7048
10.784362 6.120706 52.344017
10.677713 6.7581625 50.880123
10.916499 6.893939 51.34729
11.133537 6.7208557 52.070023
11.551441 -15.948782 58.000195
11.574475 -16.194098 58.616627
11.580506 -16.270452 59.462833
11.642634 -16.037384 59.981674
11.172659 -14.524513 54.911922
11.606052 -15.516442 60.383446
11.716832 -15.233525 60.547314
11.565387 -14.00722 53.666904
11.325784 -14.396402 54.4418
11.956427 -13.913586 60.888664
11.352819 -13.356722 53.153515
11.098091 -12.735582 52.867046
11.331842 -11.333081 61.533188
11.189268 -10.489899 62.593082
11.8162775 -10.203519 62.895657
11.620457 -9.121338 63.831963
11.709956 -7.8635073 50.888584
11.195342 -8.050842 51.939957
11.988808 -8.269117 64.51209
11.948995 -7.9141054 64.6238
11.529413 -7.115445 50.153152
12.046991 -7.7926817 64.68542
11.593815 -6.2103586 49.84146
11.931991 -6.59701 65.02135
11.855192 -5.639785 49.719776
11.394893 -5.5250654 65.113235
11.391412 -4.6209064 65.52271
11.554125 -4.2460995 65.682396
12.099347 -3.2631762 50.006195
11.602834 -3.4667854 50.608578
11.903236 -3.8717442 55.41536
11.5524845 -3.6648254 61.937153
11.289009 -3.2582095 65.54288
11.6927 -3.617385 65.72101
12.09089 -2.442709 50.487583
[...]
POINT_DATA 5637
SCALARS features_00 float 1
LOOKUP_TABLE default
0.57640755 0.65014315 0.53263605 0.56385696 0.63838065 0.6580613 0.47355106 0.50414205 0.60652274 0.6504578 0.64668846 0.5128983 0.5432162 0.58993113 0.617095 0.49472588 0.52776605 0.57050097 0.5930757 0.45786947 0.47269517 0.5731963 0.65782046 0.65642536 0.63497424 0.36295938 0.4249186 0.47504008 0.6561039 0.63207614 0.37958783 0.4236098 0.6400273 0.6303344 0.3612856 0.4541573 0.6341939 0.6393206 0.47857577 0.512326 0.5724952 0.63063246 0.6394896 0.47798538 0.5015208 0.56818736 0.6101052 0.52275145 0.5780886 0.6376988 0.6125512 0.62581336 0.6256306 0.292368 0.6103865 0.3090538 0.6403395 0.2878483 0.34533888 0.63196003 0.28266922 0.387882 0.6386533 0.35936147 0.407471 0.4882804 0.5730905 0.62780154 0.63577986 0.46715233 0.42320442 0.5863241 0.59828854 0.42421672 0.41702092 0.6121243 0.609377 0.41001672 0.35651767 0.6071868 0.29526213 0.251883 0.26214382 0.6238584 0.23320158 0.23612973 0.6129775 0.61673003 0.21343118 0.2415418 0.2884167 0.42363098 0.5557394 0.5977815 0.60298455 0.44783625 0.47483382 0.4687402 0.455379 0.19747086 0.4787289 0.46410573 0.25119054 0.17361985 0.57718706 0.5784073 0.46687764 0.45248103 0.5503767 0.44887975 0.43176064 0.4479609 0.28240418 0.59044087 0.22496437 0.5761529 0.19988766 0.5621733 0.20116621 0.23842269 0.26746866 0.1425011 0.4619993 0.4244159 0.54020715 0.5052287 0.4736356 0.1880407 0.113867104 0.5400044 0.5172433 0.5176077 0.48853415 0.41831475 0.32248938 0.38627625 0.38454682 0.18768246 0.26548502 0.12491429 0.14843552 0.17684162 0.18055429 0.24141638 0.150066 0.17952687 0.09003404 0.20157614 0.6527949 0.6620791 0.5365591 0.4642647 0.4204532 0.534835 0.5779018 0.53380895 0.23469314 0.5820433 0.5639974 0.42988378 -0.11201452 0.30893868 0.24946846 0.118187666 0.68942714 0.6950521 0.5945521 0.65129966 0.5262724 0.45051724 0.16263992 0.026837658 -0.009927809 0.45061463 0.4457705 0.4260342 0.28150395 0.7346791 0.76781106 0.7729465 0.7525166 0.4277421 0.47589126 0.48857784 0.5202737 0.52454734 0.7755017 0.80175006 0.8222997 0.8165009 0.54295087 0.5741335 0.5899629 0.84189856 0.4730614 0.529057 0.56277263 0.45514727 0.5498581 0.5780846 0.603198 0.5681692 0.57856464 0.61459696 0.62075716 0.6080027 0.64568794 0.68125415 0.6874441 0.62780035 0.6724433 0.7168026 0.706769 0.71439064 0.7990861 0.8020612 0.7637909 0.41356766 0.7455262 0.7451161 0.7201097 0.58681124 0.3357171 0.53941286 0.62504315 0.61827826 0.479148 0.62140214 0.14167118 0.61211085 0.013277151 0.4585387 0.24228558 0.29731208 0.59147024 0.23144725 0.53364825 0.6142843 0.7087701 0.6634437 0.2812993 0.51128757 0.58743525 0.043193445 0.2501149 0.43133953 0.52057546 0.32794443 0.53920895 0.63270795 0.40903705 0.421264 0.38121095 0.2458416 0.7509743 0.40442598 0.42105544 0.5578599 0.7627076 0.83972806 0.8123075 0.37367898 0.54745126 0.5934413 0.60778415 0.62648386 0.82318836 0.85447204 0.87338084 0.8734275 0.6149459 0.6472571 0.87387204 0.8904317 0.3778068 0.48640096 0.59811115 0.37054604 0.40991712 0.49582264 0.30283582 0.42717138 0.63052917 0.45923746 0.59553087 0.59028214 0.49164522 0.5464527 0.5315429 0.5623531 0.6185172 0.5916387 0.6534529 0.7232815 0.69121176 0.6433085 0.7334871 0.71783483 0.6555384 0.6838162 0.795432 0.8107029 0.7678303 0.43015575 0.6922176 0.6431447 0.647159 0.5290241 0.39583623 0.66535497 0.65991163 0.064967185 0.12507665 0.19872189 0.2994898 0.45104134 0.6359056 0.3161559 0.32010338 0.47798818 0.32522222 0.4389805 0.3839787 0.37876248 0.5504146 0.69209266 0.7412481 0.1812327 0.27148497 0.18189356 0.71523154 0.8512688 0.8255712 0.1545261 0.3066393 0.2976962 0.25765178 0.091086015 0.42650527 0.5504478 0.6733448 0.8039619 0.8822533 0.13482508 0.11315556 0.02801919 0.6038499 0.66889334 0.69797415 0.69596815 0.80453324 0.86429054 0.8817699 0.8853142 0.15577666 0.3781907 0.25601742 0.24726687 0.27140006 0.29208317 0.56949455 0.27789786 0.30429173 0.5379858 0.34440392 0.47988105 0.34890443 0.32758808 0.53016627 0.53916305 0.5427996 0.584015 0.48538566 0.6228744 0.6740775 0.6070961 0.6622108 0.570835 0.72421527 0.7825887 0.7402326 0.3332403 0.4077824 0.66783035 0.6114838 0.627967 0.30979615 0.46232444 0.6205186 0.20556606 0.5468907 0.50693375 0.47825003 0.1854313 0.17604521 0.22637226 0.2893588 0.30835992 0.3170246 0.36328483 0.36594158 0.27186713 0.36458927 0.39254814 0.26512092 0.32769445 0.4917546 0.29734844 0.7102659 0.1820712 0.025351495 0.678807 0.8234943 0.117035195 0.01497525 0.5868111 0.8525773 0.18222512 0.13669801 0.6459511 0.68490285 0.696939 0.68182063 0.7616632 0.79890144 0.84023166 0.84131503 0.26725897 0.22728065 0.28033575 0.26011825 0.41498202 0.27547234 0.2715762 0.4349746 0.24539346 0.39127484 0.17497498 0.29160428 0.2706167 0.21855918 0.39484468 0.2409633 0.43276697 0.20178795 0.5482218 0.4201469 0.53871644 0.521691 0.20368764 0.68596876 0.46879435 0.6025721 0.72322136 0.70977235 0.64129305 0.71447015 0.7109288 0.65997124 0.38045758 0.41963422 0.62656313 0.26472577 0.37876326 0.54066193 0.42851788 0.14643764 0.4065745 0.22007424 -0.037114166 0.5205839 0.4589777 0.007592652 0.11702603 -0.06219563 0.39882338 0.31574917 0.3161783 0.2777319 0.2113238 0.29926625 0.2790753 0.21240643 0.31688955 0.3695718 0.07301178 0.42474163 0.5111808 0.36711186 -0.26875067 0.59155035 0.32037348 0.027434468 0.45206434 0.37738025 0.7295646 0.34162152 0.19099855 0.59751123 0.6112415 0.6180314 0.6275956 0.71847093 0.7423382 0.7926769 0.2520837 0.024358213 0.038239777 0.6586704 0.66180885 0.7474591 0.27994588 0.272085 0.28254405 0.26851505 0.23194033 0.28939426 0.10489932 0.21790397 0.086775824 0.13612582 0.14987603 0.19999999 0.15137768 0.28458613 0.311696 0.42459092 0.60635716 0.67301077 0.6362965 0.5893551 0.66095126 0.7123345 0.69263303 0.6408739 0.5359402 0.66305685 0.7199545 0.7028413 0.550775 0.58756447 0.41040915 0.5201938 0.52616554 0.5199734 0.7477557 0.7032985 0.7019125 0.68981874 0.670563 0.042176846 -0.2251851 0.57700926 0.55771947 0.5252703 -0.15653187 0.4525169 0.045342226 0.4127402 0.39962402 0.39755687 0.25927287 0.31407264 0.33542326 0.013056822 0.46157658 0.32196325 0.18613176 0.5149056 0.4336074 0.008685391 0.0024787337 -0.2726921 0.577525 0.56915903 0.46410918 0.35225952 0.4037757 0.42609292 0.61757886 0.67098004 0.6676056 0.5512048 0.4531932 0.65232646 0.7009901 0.5017563 0.10897491 0.2893502 0.08460571 0.18227226 0.18059537 -0.0007928461 0.037754446 -0.009885319 0.011719264 0.03920263 -0.037361577 0.09358589 0.28054422 0.061015785 -0.16159268 0.4297672 0.4977585 0.042547364 0.07062318 0.55228853 0.026642725 0.6039597 0.3502348 0.43768772 0.64893496 0.64194065 0.70742875 0.7210308 0.68362397 0.6807029 0.38396284 0.41605538 0.76669073 0.77148956 0.72815406 0.58046126 -0.03794667 0.24974981 0.35000938 0.43931088 0.7124691 0.51069164 0.40399253 0.15351993 0.32862994 0.44643104 0.48165774 0.62808675 -0.5005665 0.414061 0.4790449 0.41493145 -0.015704703 0.4089072 0.105470814 0.3665773 0.06935722 0.2241989 0.3887408 0.38968644 -0.5019759 0.4542768 0.6018374 0.49526978 -0.3820396 -0.41744113 -0.19044751 0.597107 0.6446413 -0.041418195 0.64661396 0.6699858 0.6103598 0.050121177 0.06956138 0.4224273 0.02756268 0.25176412 0.071511775 0.07068553 0.66757977 0.12776148 0.023180157 0.03064286 0.6892288 0.68952394 0.6558862 0.038186282 -0.012108855 0.67258525 0.6948413 0.6800716 0.019619316 0.0056881607 0.63451874 0.662616 0.63629156 -0.024047524 0.07398677 0.59656584 0.55952513 0.012407686 0.2551697 0.027288707 0.022809196 0.05105786 0.44672126 0.054376137 0.5035413 0.53740907 0.06269498 0.081575274 0.08960861 0.5864026 0.1528819 0.18214229 0.1790285 0.69268155 0.6580074 0.16774236 0.2048232 0.2227842 0.25338364 0.67848456 0.22005947 0.4483123 0.42888072 0.49453565 0.5288555 0.4864031 0.507324 0.17988475 0.019407846 0.13027623 0.48424733 0.53002363 0.76466775 0.78473914 0.71610713 0.58798385 0.40095055 0.061033234 0.53575695 0.7197152 0.2189447 -0.09763198 0.49114522 0.55569905 0.43314093 0.47027373 0.360704 0.34674186 0.37207395 0.3163158 0.3450231 0.26292962 0.17237723 -0.5067873 -0.45385343 -0.40314248 0.6475456 0.60985637 -0.27173862 -0.025588844 0.46933964 0.7014241 0.28072408 0.72515607 -0.102192655 0.7167136 -0.017508976 0.015603974 -0.019652814 0.42022085 0.40036845 -0.015673876 0.6574329 0.6373649 0.6141187 0.5523195 0.38780296 0.4011038 0.30531383 0.064532176 0.6536106 0.6750139 0.61801827 0.578949 0.31692597 0.30832297 0.030753694 0.631563 0.6646274 0.5656805 0.23911089 0.14632249 0.030698776 0.5672664 0.61018014 0.5294286 0.3695872 0.06219798 0.14625105 0.48747048 0.5620337 0.5620235 0.54018027 0.48514158 0.2498289 0.22750059 0.5192073 0.54544395 0.41566288 0.34054905 0.1630765 0.13348629 0.04171664 -0.11523741 0.35712025 0.23937571 0.19982812 0.08778637 0.39732692 0.24194792 0.24291804 0.23490918 0.18176034 0.4868238 0.23024537 0.23219654 0.2266567 0.19883385 0.14971657 0.46861944 0.21521121 0.21440744 0.31875515 0.21045816 0.15536134 0.093972355 0.12641667 0.39795327 0.42050982 0.20027064 0.271778 0.34159878 0.48022816 0.3952015 0.3939274 0.56365395 0.42460525 0.49498785 0.5773884 0.59803706 0.59619606 0.5147338 0.5786263 0.6296925 0.63006705 0.7557981 0.71330446 0.69529355 0.52445465 0.5435414 0.54677534 0.47998184 0.3758927 0.44479063 0.49979043 0.3418627 0.35984132 0.25855976 0.1594724 0.34185416 0.40510505 0.49571943 0.53727645 0.10780814 0.18132675 0.047169145 0.5624831 0.54803145 0.73133355 0.70982194 0.045396544 -0.014816584 0.5317454 0.52510333 0.70213395 -0.28922594 0.43022767 0.45424598 0.27506953 0.24637318 0.36317 0.25183645 0.2280836 0.19025448 0.27102247 0.23946042 -0.025783699 0.25024027 0.26167083 0.26697192 0.41947988 0.51759756 -0.28123847 0.6623742 0.5934427 0.27292508 0.29559752 0.44235906 0.51345646 0.658502 0.4221704 0.26400757 -0.04861033 0.5296186 0.25687316 0.047764093 0.14313778 0.4487941 0.3895267 0.14575185 0.27652007 0.25822246 0.6627652 0.61282104 0.6479208 0.49432757 0.5213152 0.34803253 0.38343716 0.38249606 0.13491759 0.6967 0.6957108 0.7109679 0.687827 0.7047157 0.58536434 0.5607525 0.55688536 0.52623165 0.47592175 0.39151937 0.15466443 0.6992445 0.7394464 0.7259459 0.6918649 0.601465 0.45989996 0.33170512 0.16505396 0.7177099 0.5497855 0.5757339 0.47674066 0.29405904 0.46186417 0.10238023 -0.0028346926 0.20220175 0.41980505 0.20322289 -0.43070352 -0.12401414 0.23333591 0.39919612 0.034871805 -0.077892795 0.02756894 -0.017306644 0.30426964 0.22962442 0.17042093 -0.014333174 0.09760367 0.2970767 0.31985003 0.28517696 0.2803756 0.2894024 0.33309716 0.25795382 0.2681629 0.24913454 0.2839337 0.25021508 0.24076848 0.21983735 0.21976358 0.20805731 0.20583567 0.2084094 0.16554025 0.4038284 0.22073212 0.420851 0.3089094 0.45297337 0.323675 0.41995227 0.583361 0.45620933 0.659104 0.61151916 0.67063105 0.76082826 0.78512406 0.72036624 0.68474424 0.837826 0.85331225 0.7999459 0.43913516 0.41662312 0.35307032 0.34511703 0.6370479 0.6380943 0.6227372 0.5223029 0.47457764 0.3170988 0.5939887 0.59239066 0.5710927 0.38680667 0.21964511 0.3406508 0.42370406 0.48775595 0.551024 0.52555543 0.2301986 0.50883245 0.5216409 0.49267215 0.4638474 0.51214206 0.5513097 0.49458593 0.47416383 0.4945236 0.51379055 0.45511824 0.3462324 0.37174308 0.24255562 0.17244485 0.30721137 0.16063306 0.12765373 0.19001207 0.12964053 -0.07509435 0.18263434 0.22460034 0.18922345 0.31714723 0.13377352 0.46445626 0.042433955 -0.23505405 0.02611263 0.53961146 0.15830566 0.022515722 -0.13695052 0.023729706 0.033983 0.013845056 0.26992333 0.4799729 0.5146812 0.16195953 -0.06365899 0.42422742 0.20772289 0.14078432 0.2400321 0.44586295 0.49841583 0.4078765 0.35770556 0.29402795 0.5662263 0.53416795 0.5680968 0.63888466 0.3618506 0.41035575 0.38350755 0.35562196 0.26828104 0.25141025 0.33411202 0.36528212 0.36680123 0.28709394 0.606676 0.59956604 0.6993383 0.69677365 0.37104034 0.37475377 -0.06857881 -0.040343136 0.26545066 0.3020819 0.24280004 0.1637513 0.6210605 0.68217564 0.6604972 0.67842615 0.6984899 0.36037284 0.18463469 0.16210243 0.6420665 0.6204227 0.5956857 0.63562524 0.25695193 0.3602621 0.16535337 0.268856 0.22652812 0.28228375 -0.43795705 0.32908344 0.26462287 -0.19469297 0.33985507 0.18007678 0.32218796 0.08876018 0.11100584 0.27360135 0.27716604 0.22494861 0.2392669 0.25010931 0.2075985 0.108293004 0.19572145 0.17074107 0.066710524 0.06020207 0.15074393 0.21846497 0.23643726 0.23454326 0.15862 0.39246398 0.23972665 0.23214458 0.12101076 0.41011062 0.09167553 0.08632584 0.5268668 0.21771426 0.608248 0.69945264 0.7572122 0.7101148 0.72451425 0.8295876 0.8775432 0.83139455 0.6757176 0.666213 0.68047976 0.63207656 0.5502321 0.57123154 0.5893532 0.52487504 0.59449595 0.47757006 0.4476282 0.46835595 0.656819 0.6571954 0.5987973 0.54355204 0.41496673 0.6057362 0.35123563 0.2953887 0.26160043 0.64607584 0.65345454 0.4908243 0.47395283 0.33404022 0.35827112 0.3648691 0.50016534 0.5699794 0.49197572 0.4036277 0.32004297 0.30809486 0.26213512 0.6068029 0.40315205 0.3075413 0.25578162 0.49025595 0.46871424 0.42895895 0.45514938 0.31464738 0.28041393 0.25368658 0.5514299 -0.11662705 0.08343736 0.4529036 0.39588034 0.32722408 0.29946977 0.2143438 0.1570575 0.46370712 0.30451953 0.31910983 0.24520668 0.16300346 0.32867444 0.45302236 0.20463873 0.44688082 0.41004878 0.39545566 0.43365598 0.33915976 0.33113828 0.36132577 0.39706105 0.26559138 0.20569834 0.21660595 0.27550143 0.076544866 0.091488466 -0.09625838 0.11766386 -0.30475652 0.17127289 0.12814087 0.020297727 0.48029298 0.4814648 0.16135854 0.14470401 0.10677312 0.38618922 0.07747772 0.4610222 0.06898539 0.46336162 0.13783173 -0.061330754 0.30491713 0.3172206 0.035234794 -0.27509394 -0.23286285 -0.02717337 0.13389775 0.43386072 0.23657936 0.2010247 0.39129555 0.3276102 0.4494464 0.3655556 0.42782563 0.28886282 0.4327025 0.63941103 0.21190415 0.2767384 0.14393544 0.039128177 0.13702287 0.124494374 0.047254436 0.22899586 0.35597584 0.3686981 0.51992273 0.70400226 0.1826686 0.21302481 0.36606857 0.35032097 0.5876338 0.68221045 0.25819948 0.24717924 0.24718446 0.53911906 0.616039 0.53521174 0.5350697 0.6100422 0.6360917 0.11236404 0.56682944 0.54440284 0.49818772 0.49165893 0.101668105 0.08286193 0.19134796 0.2198179 0.3132467 0.2844841 0.33329725 0.3515125 0.1219134 0.34849524 0.37090892 0.045082703 0.2977447 0.38292238 0.36297598 0.025099035 0.09475087 0.37598696 0.38553637 0.363102 0.14127381 0.3822554 0.37760797 0.16445598 0.05314057 0.12922907 0.3858155 0.3679565 0.039931595 0.12090427 0.18115966 0.26446503 0.18977499 0.23154777 0.23525965 0.36176717 0.18932217 0.12707737 0.1056827 0.4606996 0.5425251 0.5015187 0.66202796 0.7822216 0.8473874 0.8184366 0.7442311 0.7621125 0.7627922 0.66807795 0.71084857 0.7310308 0.7317333 0.6963554 0.49368805 0.53994703 0.5804529 0.46098676 0.6328787 0.6043619 0.539982 0.41833806 0.45057756 0.54669756 0.6751123 0.7276813 0.5104854 0.2832262 0.19547826 0.59951 0.61808014 0.5015367 0.4622867 0.44061053 0.3056786 0.37809333 0.6738025 0.64586276 0.47742307 0.22291702 0.21315862 0.54527926 0.567394 0.38022038 0.14848939 0.15048973 0.48497802 0.4129298 0.12766391 0.09825422 0.10358597 0.08337962 0.34517893 0.3881198 0.2979839 0.29495487 0.09600071 0.07370603 0.04680552 0.0552515 0.4176574 0.6039524 0.5475284 0.33923146 0.22070536 0.13306561 0.034856655 0.015624482 -0.0951865 -0.23702127 0.39095557 0.6083297 0.47167483 0.28133425 0.06478612 -0.020878762 0.13266186 -0.097894326 -0.20697245 0.3913929 0.5878355 0.46396738 0.40945047 0.28840333 0.1706621 -0.00400462 -0.029158726 0.22838125 0.44947553 0.43627977 -0.01765887 -0.17008835 -0.0009836629 0.3586867 0.33762205 0.3457744 -0.048203286 0.42467213 0.44396344 0.43230802 0.35593528 -0.14905375 -0.18570584 0.44970357 0.47080064 0.47223717 0.43236798 0.3422414 0.07279695 0.43214273 0.46614742 0.46184498 0.46229905 0.10011913 -0.007757105 0.41764462 0.44695216 0.44593403 0.4449238 0.07628979 0.41557607 0.4259287 0.4186132 0.09314646 0.23768443 0.18369913 -0.13211504 0.32588652 0.3862488 0.41118273 0.29532564 0.036413886 -0.12953104 0.009784408 0.16996326 0.082177415 0.076601766 0.16047785 0.19842629 0.22911675 0.25129187 0.3932128 0.0043941587 0.4897697 0.14481504 0.089475214 0.16093796 0.29414153 0.6560755 0.23517488 0.1717211 0.2924869 0.33803737 0.29875836 0.66281855 0.24645036 0.24789938 0.2716751 0.26338354 0.4977952 0.54968256 0.61818147 0.19746806 0.19139309 0.5543723 0.5604034 0.5417956 0.49230057 0.47921002 0.50067115 0.11741601 0.5410669 -0.09393136 0.059848726 0.11579183 0.086293496 -0.05969513 -0.11273162 -0.09407261 -0.025073279 0.13660036 0.21886197 0.25336832 0.2920266 0.23051605 0.0853987 0.050958328 -0.15177616 -0.011038046 0.11441447 0.2572593 0.2356779 0.36134142 0.35169524 0.30873287 0.210736 -0.039855365 0.008612509 -0.057588167 0.117799014 0.22293195 0.35417426 0.32496005 0.23166652 -0.2219997 -0.15667257 0.2634572 0.35912955 0.32725167 0.22619072 0.042727277 0.09627117 0.34229928 0.36661214 0.35557562 0.31482765 0.23575647 0.08693701 0.1346321 0.34079427 0.3852018 0.36879784 0.31362903 0.13492243 0.14631894 0.10020268 0.112106495 0.39177206 0.42061862 0.38344964 0.2968325 0.28631368 0.120548524 0.12299435 0.0936848 0.12659287 0.40307918 0.43521464 0.40153432 0.36395916 0.22494298 0.49909255 0.488573 0.46831575 0.2018497 0.33215168 0.641275 0.65532774 0.63682306 0.22156046 0.18374416 0.12738287 0.44273347 0.74338734 0.7801498 0.76057494 0.7148758 0.19602741 0.17822239 0.6712767 0.7232548 0.6896361 0.5654361 0.8065945 0.75471675 0.72920406 0.7593001 0.77257764 0.5307942 0.6063435 0.72946 0.47861657 0.48986936 0.35571432 0.592476 0.6547805 0.72059274 0.4801774 0.528556 0.4224295 0.53437644 0.59595203 0.7319708 0.8043841 0.4601086 0.47042018 0.20719048 0.26142523 0.2873243 0.40102014 0.43889615 0.40609884 0.3645357 0.057419732 0.31495398 0.723948 0.4472062 0.44150367 0.22886544 0.35919827 0.1240659 0.6161009 0.34706122 0.15869445 0.3862913 0.31071213 0.51502454 0.19590902 0.03344562 0.02886989 0.034201458 0.53665555 0.45730868 0.38224196 0.0054548047 0.03212477 -0.032098845 0.31361276 0.58803856 0.52747715 -0.04357987 0.24910979 0.631869 0.05892358 0.6257517 0.55762506 -0.10979596 0.08100577 0.070420876 -0.0560996 0.4629178 0.33301538 0.096862644 0.13833898 0.23091792 0.07588572 0.033984452 0.04359321 -0.12786543 0.12466641 0.2783206 0.024452902 -0.1246127 0.26242456 0.2223512 0.17895702 -0.2608227 -0.15505749 0.10365255 0.24276447 0.22017851 -0.034649186 -0.14951766 -0.0120099485 0.54352653 0.52176875 0.4991869 0.36323595 0.30684817 0.02644147 0.4566393 0.556038 0.549298 0.5145479 0.38115138 0.049587086 0.44736326 0.5160261 0.52598214 0.43321913 0.3616063 0.39484474 0.37817255 0.26956987 0.100027375 0.06385082 0.25203097 0.34468246 0.4189947 -0.010094937 0.35383525 0.31776023 0.21408325 -0.0026281364 0.035349756 -0.093669616 0.23009777 0.24532104 0.015436679 0.22453426 0.02839646 0.024019603 -0.034633778 0.070185244 0.18805835 0.23821777 0.2463828 0.2547506 0.017461546 0.13109112 0.119557604 0.10702672 0.012806959 0.021496281 0.26542628 0.26291424 0.17400442 0.5885165 0.17245717 0.16967338 0.2183755 0.20501888 0.5712066 0.4136988 0.40991908 0.36774838 0.27950615 0.119969085 0.14766783 0.2040688 0.42007563 0.52404916 0.4095587 0.41494977 0.39753872 0.091846585 0.19520481 0.20067464 0.20265375 0.5576923 0.50911975 0.49011874 0.38440925 0.38891008 0.35653389 0.18524493 0.04226456 0.15412028 0.16678318 0.55512446 0.5352481 0.3269806 0.28697848 0.16421661 -0.10143848 0.0983621 0.20105398 0.10834885 0.019783726 0.027297104 0.1612169 0.21364069 0.018661045 -0.22329512 0.16213751 -0.04532163 -0.321614 -0.209328 0.09310829 0.16852237 0.039498307 -0.33370182 -0.19650601 0.07358451 0.18723135 0.16734485 -0.3495946 -0.14533173 -0.024958022 0.19674012 -0.05232081 0.087436154 0.16266266 0.30622578 0.18493651 0.05245099 0.28867573 0.3429998 0.18612866 0.21692045 0.37110966 0.3487289 0.26845357 0.06364361 0.031191379 0.2548616 0.30096173 0.5367886 0.341448 0.22395474 0.26423442 0.27990296 0.7316831 0.65469706 0.62276345 0.26117662 0.36985505 0.78824735 0.7859236 0.80372584 0.8024376 0.7640536 0.28086984 0.24561962 