# vtk DataFile Version 2.0
Really cool data
ASCII
DATASET POLYDATA
POINTS 5479 float
-9.894949 -9.833396 36.762417
-10.006381 -9.847025 37.47302
-9.79957 -9.802828 38.169197
-9.8355055 -9.267372 36.266216
-10.140509 -9.335671 36.73644
-10.320568 -9.348436 37.551094
-10.148088 -9.225428 38.34814
-9.979435 -9.134983 38.79898
-9.816789 -8.778823 36.225224
-10.091223 -8.541954 36.7054
-10.383617 -8.60851 37.502712
-10.309728 -8.598617 38.29459
-10.010986 -8.473885 38.89495
-9.875802 -8.1479025 36.744186
-10.057484 -7.94623 37.656807
-10.014673 -7.938375 38.409557
-9.790948 -3.9980605 45.423923
-9.710134 -3.9302876 45.96728
-9.644716 -3.1350017 44.03665
-9.940715 -3.3044376 44.67996
-9.988015 -3.4064353 45.409542
-9.740887 -3.3603508 46.011974
-9.68517 -2.5508122 44.125286
-9.963815 -2.7001648 44.782673
-9.972926 -2.7505622 45.432068
-9.820268 -2.732638 45.86247
-9.74469 -2.0832305 44.682884
-9.715154 -2.1152768 45.384525
-8.977907 -10.001233 36.138176
-9.482476 -10.056491 36.690823
-9.560294 -10.150456 37.168034
-9.4408865 -9.953166 38.25572
-9.100406 -9.740328 38.774265
-9.253204 -9.405046 35.91432
-9.686287 -9.510363 38.756424
-8.721319 -8.913791 35.397793
-9.3628235 -8.59171 35.97118
-9.509934 -8.718351 39.268997
-8.913001 -7.810784 36.22014
-9.41562 -7.718322 36.72347
-9.491118 -7.4328933 37.648926
-9.556718 -7.604249 38.69513
-9.117026 -7.971783 39.407986
-9.459487 -7.3822703 37.554165
-8.971671 -4.748962 44.82277
-8.996922 -4.832437 45.379612
-9.078982 -4.0476146 43.865387
-9.538967 -4.3648334 44.952305
-9.387792 -4.4909277 45.550102
-9.233717 -4.2333255 46.09148
-8.850917 -3.9272382 46.626293
-8.880223 -3.278044 43.207413
-9.458761 -3.4476016 43.9946
-9.459639 -3.2484188 46.39493
-8.927006 -3.4138637 46.781452
-8.847131 -2.5545552 42.92398
-9.301847 -2.4935453 43.672577
-9.36541 -2.5724955 46.36355
-8.838053 -1.3775058 42.906155
-9.187711 -1.3238204 43.493458
-9.325479 -1.2501701 44.627296
-9.422436 -1.687708 45.378937
-9.04353 -1.7490368 46.034054
-8.766118 -0.6104749 42.91978
-9.067395 -0.72559 43.593723
-9.111822 -0.65074766 44.160427
-8.995023 -0.91931295 45.40702
-8.535991 6.9345727 47.589573
-8.524802 6.922954 48.136475
-8.556602 7.2897983 47.54917
-8.547951 7.1770406 48.1669
-7.6473885 -10.7846775 42.10116
-7.6347556 -10.826784 42.67773
-7.680847 -10.760339 42.955704
-8.154015 -10.10177 35.780388
-8.555723 -10.286227 36.65794
-8.826917 -10.305449 37.154655
-8.582048 -10.1012535 38.237
-7.6867304 -10.560426 41.97667
-7.8623443 -10.306215 42.676853
-7.786308 -10.286139 43.250156
-8.232463 -9.291145 35.181255
-8.627232 -9.295993 35.505154
-8.144397 -9.589568 39.02825
-7.9138603 -9.484294 42.59589
-8.014998 -9.663369 43.29119
-7.8524995 -9.417505 44.4873
-7.700487 -9.147264 44.927303
-8.217542 -8.724156 35.19539
-8.628509 -8.57214 35.433567
-8.014532 -8.620711 43.667656
-7.9144125 -8.673269 44.399025
-8.219023 -7.7664046 35.80218
-8.604778 -7.711162 36.398624
-7.748107 -8.107368 43.285374
-7.6493163 -7.797772 44.396046
-8.543437 -7.287636 36.75295
-8.732304 -7.106792 37.784065
-8.49478 -6.858646 38.21034
-8.195626 -6.9479523 39.273434
-8.367022 -4.973655 44.65655
-8.470881 -4.9999886 45.400467
-8.531528 -4.7849393 46.023502
-8.590596 -3.909525 43.351006
-8.674314 -4.5670996 46.246273
-8.26721 -4.0526423 46.77888
-8.596105 -3.4673405 42.906662
-8.5418415 -3.4979594 46.912167
-8.130381 -2.4712756 42.38381
-8.51671 -2.3474195 42.74546
-8.32391 -2.5600872 46.96079
-7.890322 -1.160329 42.173645
-8.325112 -1.4509006 42.452328
-8.711462 -1.6190714 46.14119
-7.9772725 -1.8251183 46.702957
-7.927733 -0.364879 41.960373
-8.275021 -0.38360286 42.50766
-8.543618 -0.2735578 45.581833
-8.272469 -0.5676205 45.956463
-7.9726024 0.61634517 42.581448
-8.173906 0.7345069 43.5681
-8.276079 0.40689525 44.030838
-8.392845 0.05984226 45.28024
-8.145793 0.010361701 45.746433
-7.6910315 1.446682 42.44216
-7.914524 1.2062731 43.4418
-7.784515 1.5435731 44.38774
-7.6236486 1.9901296 42.666386
-7.6060896 2.195206 43.670933
-7.6207833 2.4338584 44.526237
-7.7312894 5.979767 46.437904
-8.009029 5.8464284 47.63236
-7.98506 5.9332867 48.266064
-7.8392653 6.2429953 48.87848
-7.8765655 6.643615 45.957645
-8.238706 6.727024 46.70044
-8.41459 6.5779023 47.623516
-8.337024 6.660883 48.442104
-8.058052 6.623189 48.85941
-7.6998177 7.8979716 45.34246
-8.064682 7.694875 45.93212
-8.322606 7.5558343 46.512085
-8.462554 7.5529394 47.59475
-8.339993 7.425105 48.47793
-8.042002 7.310747 48.886227
-7.90287 8.422662 45.786552
-8.187787 8.481661 46.48368
-8.262897 8.231552 47.464104
-8.111357 8.002262 48.294468
-7.8131123 9.015117 46.071854
-7.8524127 9.052783 46.43746
-7.872076 8.954016 47.080757
-6.7701635 -11.661681 42.83436
-7.101447 -11.146205 41.82114
-7.3294315 -11.191125 42.50335
-7.279952 -11.113132 43.28495
-6.8970957 -11.119003 44.13474
-7.4513984 -9.8366995 35.18616
-7.545562 -10.163774 35.66054
-7.5907297 -10.318785 36.4627
-7.566073 -10.389802 37.044285
-7.153225 -9.888054 38.776848
-6.9616723 -10.342784 41.16303
-7.5624914 -10.377266 41.711933
-7.5510573 -10.376547 44.078648
-7.1324606 -10.156844 45.099804
-6.683641 -9.925935 45.722008
-7.432644 -9.371505 34.954807
-7.6042504 -9.648368 44.681236
-7.258323 -9.559806 45.212162
-7.538163 -8.659294 34.95963
-7.6549892 -8.346583 40.35428
-7.146536 -8.591064 45.283356
-6.7265124 -8.903908 45.837868
-7.6627336 -8.163906 35.174744
-7.3286805 -7.699164 35.525684
-7.2185946 -7.8068857 40.802486
-7.0404415 -7.78788 42.908752
-7.4399347 -7.761382 43.516277
-7.072013 -7.540843 44.5501
-7.2461014 -7.2994266 36.006477
-6.818378 -6.3989744 36.62018
-6.8383765 -6.368899 39.981686
-6.8091 -7.1605186 40.96293
-7.03314 -6.142764 38.99215
-7.731688 -4.884172 44.74103
-7.943422 -4.7530518 46.03644
-6.8815203 -3.9492433 37.67503
-7.471924 -3.98247 42.94701
-7.4349446 -4.3330975 43.329613
-7.41677 -4.417242 46.31754
-6.748587 -3.4867833 36.146507
-7.0226283 -3.4461305 36.635494
-7.1545835 -3.579613 37.036194
-7.716723 -3.4239388 46.998344
-6.6657352 -2.96899 36.22637
-6.7803664 -2.8603356 36.616074
-6.79311 -2.838779 37.351383
-6.708824 -2.985876 37.91926
-7.89752 -2.5059988 47.07043
-6.647901 -2.2960184 47.751087
-6.9174924 -1.1820127 41.545868
-7.3449636 -1.920277 46.72019
-7.0268908 -0.1766199 41.133568
-7.4433656 -0.36594623 41.60086
-6.7588706 -0.68657744 47.02977
-7.5332155 0.71248406 41.62661
-6.8894897 0.9753847 41.227474
-7.3104944 1.2438374 41.70877
-7.528175 1.346381 45.55601
-7.2594767 0.9795995 45.807396
-6.7556176 2.414422 41.489597
-7.480424 2.2646127 42.592495
-7.497035 2.3640478 43.43286
-7.432614 2.6900737 44.35937
-7.3493114 2.70106 45.44921
-7.2023683 2.3478587 45.928135
-6.833285 3.0937817 41.859215
-7.1064286 3.0542932 42.769184
-7.147615 3.0978894 43.338787
-6.8844914 3.4616175 44.132496
-7.0059996 3.387782 45.129963
-6.849263 3.1982555 46.06077
-6.8185344 3.8000405 45.04621
-7.1237526 5.1029634 46.484367
-7.3086014 5.378998 48.254612
-7.470603 5.576984 46.773598
-7.3137045 5.960887 48.9205
-7.2260265 6.394044 45.076317
-7.573052 6.639093 49.11777
-7.11138 7.4006963 44.86401
-7.6438055 7.344611 49.10669
-7.118299 8.355789 45.091995
-7.6488247 8.59301 45.547718
-7.460062 8.380399 48.34992
-7.512089 7.9224424 48.830467
-7.1504135 8.771942 45.317818
-7.340195 9.047832 45.7094
-7.377812 9.375669 46.42243
-7.417845 9.225326 47.163883
-7.697147 8.669547 47.780033
-5.625435 -12.808123 42.31999
-6.2548366 -11.925105 41.91252
-5.910713 -12.429473 42.36073
-6.394142 -11.845161 43.377613
-6.4687276 -11.355193 41.456543
-6.6439962 -11.040029 44.64625
-6.207535 -10.846447 45.36799
-6.92827 -9.763774 35.139496
-6.7771306 -10.035174 35.653015
-6.878337 -10.312626 36.498337
-6.7853065 -10.252415 37.463577
-6.0688252 -9.840795 38.431522
-6.041444 -9.723651 39.673912
-6.095323 -10.34128 46.153923
-6.6757092 -9.395848 35.10218
-6.3332024 -9.6477995 46.134327
-6.6494265 -8.634902 35.01186
-6.693875 -8.628049 45.54186
-6.2436757 -8.715515 46.08389
-6.0012236 -8.085526 50.799904
-6.1023717 -8.2252035 51.64451
-5.95835 -8.354874 52.20616
-6.477727 -7.368619 41.594353
-6.096466 -7.431442 50.77565
-6.2688613 -7.5511823 51.587784
-6.152067 -7.586959 52.214687
-5.76326 -7.390699 52.84183
-5.941677 -6.6964965 41.490135
-5.7444625 -6.2918887 42.282066
-6.322051 -7.2077374 43.684578
-6.2577753 -7.331754 44.701385
-5.850341 -6.6872044 50.520668
-6.112696 -6.7194467 51.50154
-6.011183 -6.8388166 52.295433
-6.477432 -5.209772 36.742672
-5.742332 -5.862115 51.29021
-6.3122463 -4.1752467 35.868687
-6.3333535 -4.0464864 38.408222
-5.8636146 -4.741691 38.864864
-7.046979 -4.183171 43.15105
-6.9873056 -4.4754148 43.758812
-7.127162 -3.7377784 46.63562
-6.294545 -3.520623 35.851624
-5.831797 -3.4651682 38.99648
-6.7664094 -3.2543755 47.191166
-6.3223805 -2.7737448 36.08461
-6.398936 -2.4465656 36.58892
-6.40146 -2.640909 38.33592
-6.1137667 -2.4200966 38.81535
-6.140476 -1.8957616 36.69815
-6.2580914 -1.6386197 37.49907
-6.354608 -1.8597319 38.23267
-5.8818536 -0.79549193 40.894497
-6.3806186 -1.7080697 48.11015
-5.8042793 -1.6009284 48.83088
-6.0306587 -1.1056789 37.733604
-5.809675 -0.97190356 38.48081
-6.63635 -0.38480824 41.05407
-6.207012 -0.6507203 47.87628
-5.6541295 -0.4559277 48.83825
-5.566712 0.03787189 54.493046
-5.6008296 -0.22038709 55.296516
-6.585841 0.8477049 46.36085
-5.6876283 0.71754843 48.164646
-5.625965 0.4280695 54.751785
-5.6640425 0.30212566 55.416534
-5.6082163 0.15439446 55.824474
-6.37662 1.5641555 41.080814
-5.871628 1.5628939 47.312935
-5.5811024 0.9009673 55.541477
-6.6121793 1.9427505 41.40253
-5.969587 2.5628078 46.991936
-5.593189 3.6996517 39.6489
-5.882528 3.766748 40.80488
-6.37993 3.338053 41.714664
-5.9182806 3.0756555 46.774548
-5.624407 4.2125344 39.64812
-5.71111 4.222334 40.283623
-5.851168 4.4268684 41.51767
-6.4051213 3.881878 42.34773
-6.4764905 3.9669933 43.547924
-6.499856 4.378626 44.39317
-6.3793263 4.2453403 45.17905
-6.4478827 4.793972 47.746365
-6.3167152 4.847716 47.810165
-5.8991437 4.800309 42.444904
-6.7370396 5.795065 48.92871
-6.182848 6.359706 44.099106
[...]
POINT_DATA 5479
SCALARS features_00 float 1
LOOKUP_TABLE default
0.8974609 0.9054694 0.86166465 0.8568316 0.92727983 0.96343267 0.9154384 0.88606423 0.8164072 0.8760747 0.9947978 0.9565402 0.90108216 0.8033716 0.8821368 0.89403737 0.8322648 0.8188056 0.63805616 0.7678819 0.81478256 0.808167 0.5989792 0.71086246 0.7574656 0.75740194 0.6295486 0.66444355 0.8188031 0.85536844 0.8552631 0.81185496 0.76243323 0.8113755 0.842613 0.74792635 0.74826133 0.8224989 0.6552966 0.71208864 0.735893 0.78444505 0.70241237 0.72456956 0.81755435 0.80829 0.71657336 0.8320502 0.8175769 0.8001317 0.7502537 0.5441085 0.66267663 0.78248024 0.7334868 0.46200782 0.5234534 0.71340424 0.4031117 0.46327925 0.5234713 0.5841124 0.54750806 0.3799138 0.43527752 0.45555043 0.44796035 0.74649835 0.7901453 0.76064855 0.7994837 0.39447784 0.4223948 0.4381913 0.8158917 0.77219844 0.77119803 0.6926315 0.39457121 0.4442434 0.47948715 0.7981733 0.78736794 0.63978887 0.4875253 0.54394865 0.5676205 0.543324 0.74176425 0.71131516 0.6727507 0.63640153 0.60107994 0.617622 0.56257343 0.6171597 0.58685935 0.6247505 0.5773753 0.4034454 0.7958896 0.7910752 0.77476215 0.6427683 0.768389 0.6909683 0.55334795 0.6884943 0.36964887 0.4189024 0.57562256 0.30328393 0.3483498 0.48341852 0.38731325 0.30084008 0.34018588 0.3086164 0.27171806 0.32822028 0.29963887 0.32469073 0.27091247 0.1958256 0.299344 0.26631302 0.2379373 0.2714303 0.22434959 0.21800435 0.6257949 0.7174339 0.76279795 0.80956846 0.64078647 0.6815361 0.7323579 0.8016059 0.82631296 0.64047444 0.6953229 0.72963816 0.77924967 0.82112896 0.8393551 0.727635 0.7962689 0.8195782 0.8290751 0.7857622 0.81697106 0.8494614 0.38083178 0.3549257 0.39237335 0.4256612 0.4309016 0.8350923 0.80741584 0.71747744 0.6369562 0.37494874 0.31139565 0.38055542 0.5005711 0.46804577 0.43850732 0.82791215 0.5280858 0.48901814 0.78275514 0.40754676 0.52667737 0.4626509 0.6982297 0.6018362 0.18713948 0.27404422 0.4839846 0.5636569 0.4725411 0.20377252 0.102479376 0.10728161 0.06885364 0.7493119 0.7347665 0.54195505 0.5842328 0.6460696 0.6537064 0.59009457 0.5993354 0.5902523 0.5936352 0.5634175 0.56178 0.55812037 0.5157713 0.49175072 0.12185705 0.21685486 0.2933699 0.24780372 0.27027088 0.033759404 0.30925164 0.28570172 0.3112676 0.18963686 0.12366039 0.252585 0.2664825 0.22533134 0.20846885 0.22284631 0.21735904 0.23205763 0.23059028 0.20803505 0.184392 0.19801095 0.21338806 0.168596 0.46527028 0.67360675 0.62951195 0.7474978 0.52700496 0.83345926 0.5562618 0.8457035 0.62037045 0.7059289 0.812773 0.8235214 0.665602 0.7315129 0.80904883 0.85179293 0.8471538 0.336017 0.33168215 0.33638114 0.37005982 0.31817377 0.4107142 0.3764732 0.8047129 0.7536958 0.66190374 0.49375987 0.26849252 0.04172033 0.36067563 0.78207636 0.40609527 0.7491963 0.48725715 0.42116886 0.632233 0.63808596 0.6232673 -0.01558895 0.6361121 0.6574142 0.6401937 0.5877358 0.011106137 -0.004168961 0.28700876 0.45990473 0.546664 0.63395435 0.6215844 0.45077282 0.5369922 0.53324616 0.33493775 0.0012757629 0.55532956 0.5668849 0.5757566 0.55266124 0.25058067 0.38617027 0.5309256 0.520169 0.4480078 0.35018033 0.46048284 0.49387366 0.4908735 0.0682397 0.064560644 0.088503614 0.43468654 0.38522434 0.21353549 0.09118212 0.10499705 0.6415895 0.7126466 0.06518061 0.06305743 0.677588 0.73276794 0.7485446 0.22157127 0.032443434 0.7339001 0.2627324 0.057721436 0.32193422 0.19992602 0.19292736 0.054897748 0.35094285 0.28841138 0.19064966 0.19988725 0.18511997 0.123372 0.1007324 0.42947233 0.39548802 0.20138302 0.62831604 0.332905 0.48067343 0.6348691 0.5055734 0.8032532 0.49660152 0.5339018 0.71200114 0.75548846 0.60501325 0.7065415 0.77824694 0.8284185 0.7149657 0.39573398 0.37389696 0.34311193 0.36738092 0.35066578 0.29739916 0.22142792 0.2995876 0.31009483 0.58652604 0.33369747 0.7106206 0.68490714 0.09987764 -0.03893055 0.47176945 0.43219 0.5383705 0.5198088 0.5173962 0.65691996 0.6179208 0.5607356 0.53666884 0.50409555 0.29724765 0.3016127 0.0897951 0.5498532 0.47704878 0.0643525 0.16799551 0.50956786 0.29046708 0.10919138 -0.03563123 0.39315507 0.49695712 0.49080777 0.47102767 0.39486915 -0.0748624 0.46988723 -0.14606935 0.4557332 0.4736993 0.1986604 0.26374984 -0.0058704615 -0.011346087 -0.0012320131 0.4490795 0.18886603 0.09092061 0.0120089725 0.37180108 0.37530333 0.19107276 0.073443055 -0.028264567 0.60972345 0.6696249 0.7233145 0.30963156 0.35703942 0.105574474 0.40435618 0.4645421 0.5417487 0.6457969 0.7182029 0.74446326 0.7480651 0.23714317 -0.08998525 0.08488796 0.48847875 0.51013815 0.76111495 0.74903643 0.018762432 0.061036475 0.53613347 0.5413968 0.5698998 0.6710481 0.69834226 0.69307685 0.6974138 0.29070967 0.19241905 -0.004602365 0.5582903 0.5599324 0.56295604 0.6267838 0.660959 0.38503778 0.37837437 0.33817157 0.4466928 0.4375983 0.38014406 0.29850805 0.21428344 -0.09974932 0.013916557 0.4367314 0.37743324 0.2872203 0.2116082 0.1753116 0.3570605 0.0845027 0.40557164 0.43171194 0.45054987 0.5534947 0.51918566 0.49480927 0.56443405 0.5992637 0.62536454 0.39823407 0.36580372 0.43386874 0.40441263 0.38146025 0.33043498 0.29255474 0.119506806 0.1959497 -0.17111672 0.12311528 -0.16825415 0.11573273 -0.11775443 0.168078 0.34292603 0.4227432 0.460409 0.4772556 -0.06750458 0.49882165 0.5762303 0.044711582 0.49358517 0.47950372 0.2596532 0.43275 0.42041445 -0.081366114 -0.17059296 -0.20801593 -0.026636168 0.34423244 0.3244662 -0.044793144 -0.045379497 -0.3241763 -0.14054053 0.29792902 0.28427592 -0.07701461 -0.06994007 -0.040368862 -0.18250613 -0.2370954 -0.3457098 -0.15251729 0.28195906 0.27956566 -0.09562858 -0.023991749 -0.016616374 -0.024619117 -0.058430016 0.2627835 -0.023702137 0.39135158 0.66643673 0.6799562 0.67635196 0.27385727 0.22073212 0.7243453 0.7070963 0.17264345 0.19225167 0.46297207 0.6969602 0.046115898 0.5345723 0.6567179 0.65725064 0.2459441 0.5560212 0.5124544 0.56512636 0.6090044 0.59497595 0.40932465 -0.22693375 0.54692614 0.5109888 0.46746588 0.4641901 0.47306117 -0.23252815 0.46806902 0.47737065 0.4607262 0.38418597 0.31084943 0.19317895 0.40516424 0.22594738 0.11267537 0.3243654 0.30749628 0.33220005 -0.02964732 0.30625015 0.35754395 0.26416802 0.13083626 0.18637404 0.37165123 0.33754176 0.40356946 0.3095482 0.24979405 0.29478985 0.3780908 0.35151958 0.26558736 0.2196307 0.26275685 0.29567516 0.3060984 0.251265 0.41339993 0.18106455 0.19465238 0.20682645 0.24359748 0.26389837 0.28885728 0.17024949 0.040794704 0.09577936 0.14493331 0.28413343 0.30562916 0.30382583 0.07470747 -0.12806419 0.113558784 0.26605278 0.2688703 0.24922746 -0.25036088 -0.017449826 0.25648257 0.4540163 0.45136175 0.44461584 -0.027301565 0.42587915 0.3848438 0.058911785 -0.21827954 0.33489156 0.0049076416 0.21776518 0.27148104 -0.044490322 -0.111944295 0.17448083 0.41582814 0.19645293 0.30984807 0.43998948 0.6295068 0.6218616 0.18345082 0.6401495 0.13390861 0.59368414 0.010060176 0.3491372 0.43670177 0.5633592 -0.10621073 0.47710538 0.5601427 0.37995788 0.4264785 0.38959283 0.4309422 0.18671438 0.28378418 0.44344682 0.44434822 0.32181135 0.26925525 0.18801743 0.3941695 0.38190317 0.3883021 0.19106844 0.046531193 0.2578074 0.18839584 0.19134216 0.2520402 0.22818333 0.343706 0.37199944 0.20773876 0.1773976 0.32998765 0.46872753 0.4724964 0.15113516 0.13607863 0.271089 0.2619652 0.24119768 0.23035693 0.46455705 0.4954306 0.52755654 0.3049817 0.3169472 0.2534595 0.5139042 0.5365899 0.3006531 0.24467495 0.2520987 0.304025 0.3143943 0.29050565 0.36993325 0.1986306 0.31301868 0.27727973 0.21385339 0.34781158 0.21686906 0.18302014 0.31464213 0.15769312 0.31879085 0.29092413 0.109216854 0.2655155 0.55165315 -0.09746809 0.23595788 0.3394896 0.6053887 0.59781647 0.45124215 -0.15996523 -0.18106493 0.34387726 0.544963 0.33818102 0.34819046 0.30906355 0.21957317 0.40353912 -0.03370875 0.40475744 0.4356177 0.4689265 0.45334888 -0.1726768 0.20626077 0.4441632 0.4671098 0.4999752 0.4833862 0.38491824 -0.0675008 0.3888024 0.50032264 0.47750536 0.32974276 0.10577832 0.0004221201 0.0633093 0.41471344 -0.024119312 0.40852344 -0.017242134 0.20588233 0.36889085 0.21687385 0.4355297 0.32679608 0.19154155 0.15497948 0.23626281 0.35687554 0.19074357 0.19560787 0.3756453 0.37548044 0.33531672 0.29449773 0.22576466 0.13921432 0.010484815 0.15701616 0.17325476 0.28723454 0.124620296 0.3642273 0.41535634 0.10406636 0.06659587 0.03023345 0.48955703 0.5080181 0.5081749 0.0034069642 0.38836548 0.5460928 0.5790559 0.2975847 0.322223 0.33165592 0.28980297 0.20266376 0.4143884 0.5120853 0.5551578 0.5716232 0.3527481 0.34375176 0.2861402 0.51340204 0.5478698 0.28763312 0.20796236 0.1481642 0.2813487 0.3123659 0.283724 0.3431841 0.30127025 0.3044685 0.24093953 0.27840543 0.33211046 0.21921581 0.32119626 0.3566463 0.36807004 0.33336285 0.36871177 0.34801707 0.57889956 0.5244146 0.50278974 -0.037504017 0.61756206 0.5955238 0.42765483 0.62027645 0.34481585 0.4056825 0.46455252 0.32590175 0.3752765 0.44612885 0.26514742 0.4994964 0.45844847 0.36512583 0.19642136 0.51189804 0.5285678 0.4809763 0.44593197 0.48766136 0.53840977 0.5193027 0.35192347 0.53523344 0.50790924 0.40923384 -0.20368302 0.5006306 0.40574303 0.35969305 -0.016067676 0.04966776 -0.08302933 0.10441516 -0.09873799 0.23345855 0.11556715 -0.50558984 -0.2574381 0.19024613 0.2983575 0.14256908 0.33924153 0.2701436 -0.42820436 0.05918028 0.25921062 -0.13621995 -0.1682732 0.21802023 -0.035094455 0.020882867 0.07306171 0.23126057 0.2376999 0.22637704 0.13887379 0.024529628 0.05720762 0.28431982 0.44745973 -0.23931532 0.4645061 0.5208702 0.0062949285 0.5599141 -0.25942746 0.5965587 0.0996339 0.15722921 0.36127824 0.5756943 0.31157178 0.31165677 0.26163328 0.37585798 0.4727314 0.53235006 0.56039053 0.32683718 0.27458653 0.8097588 0.86674714 0.93994737 0.9394045 0.895386 0.9450929 0.9507562 0.64863586 0.63242006 0.4816875 0.24730995 0.20626146 0.1795376 0.32654357 0.3556779 0.41354218 0.4213488 0.17805503 0.18967432 0.4078308 0.38751575 0.16103764 0.38555044 0.39392942 0.12410953 0.39809266 0.03766073 0.37567562 0.38566014 0.5927212 0.5712926 0.53665525 0.46020877 0.6299765 0.6242429 -0.30063382 0.39110482 0.6054169 0.42731953 0.46104652 0.4922713 0.19614688 0.14577307 0.52865195 0.47055197 0.4152493 0.53280056 0.52333874 0.5186524 0.4876762 0.5325285 0.5465201 0.49297345 0.5305383 0.43642092 0.4015429 0.32265484 -0.035771664 0.2086052 -0.045475394 0.06937109 0.28790158 0.12035118 0.25127023 0.36870164 0.35521215 0.20040949 0.3899459 0.37765855 0.1765344 0.36405766 0.29910693 0.09544884 0.15939642 0.19122508 0.18504712 0.08575545 0.23206694 0.23569833 -0.08844465 0.45117766 0.24276927 0.18331856 0.0021042156 0.5041269 0.090571 0.080790326 0.54360884 0.5067116 0.18499076 0.13486248 -0.10935263 0.57285506 0.17145729 -0.100383 0.48782003 0.56166893 0.039255828 0.060701896 0.2844398 0.4754045 0.17071322 0.2585167 0.19733752 -0.05115921 0.6045047 0.5909127 0.6221743 0.65531164 0.70968556 0.78699136 0.8196839 0.75206363 0.91240734 0.91006124 0.78309005 0.85197425 0.9395747 0.9449031 0.9249883 0.86828077 0.9244273 0.9268909 0.91504043 0.8202847 0.8601922 0.8542843 0.66046464 0.73069143 0.7863538 0.80550367 0.4484814 0.13672023 0.2607895 0.24710119 0.3492111 0.43282935 0.43454182 0.14597294 0.42263055 0.41130686 0.1296325 0.39172494 0.40435663 0.64093155 0.62911105 0.5901862 -0.028667474 0.07402944 0.40555084 0.6095555 0.5704496 0.54590714 0.47765094 -0.0098011345 0.36592615 0.52533096 0.4306382 0.45735997 0.39734128 0.5474825 0.49402547 -0.27357656 0.16187023 0.30150673 0.24932188 0.55196476 0.45402792 -0.2705987 0.0990504 0.3883449 0.44915602 -0.060235195 0.47575557 -0.0017204285 0.19108108 0.473692 0.4483946 0.45158446 0.4115763 0.494505 0.45159626 0.4583649 -0.15402159 -0.14293024 0.39419293 0.30849978 -0.12549765 0.29755682 0.13596842 -0.016752288 -0.112629995 0.070873745 0.25171414 0.23065744 0.3690607 0.44407043 0.37823474 0.4662446 0.48208594 0.39059198 0.25516343 0.41380885 0.35166103 0.2791002 0.29003397 0.36322433 0.18147802 0.124671206 0.24406591 0.17383237 0.2716704 0.2362991 0.123866856 -0.032370303 -0.15345049 0.42133027 -0.05015574 0.04468468 0.48799866 0.079061 0.16874562 0.4656639 0.13502434 0.2306048 -0.10174966 0.0889994 0.003649108 -0.05864867 0.06705705 0.6231502 0.15000269 -0.032725055 -0.17295396 0.38574576 0.62173605 0.6610784 0.12151757 0.48223913 0.6251937 0.6558647 0.6212186 0.6408575 0.33212584 0.36881214 0.4540006 0.45877683 0.57931864 0.6468104 0.45898557 0.5093303 0.743273 0.5733556 0.6528462 0.8496187 0.6799521 0.8682296 0.75131845 0.7609569 0.87461525 0.8813923 0.8599788 0.792943 0.882608 0.9242326 0.88506126 0.67011976 0.7561655 0.77878463 0.6159138 0.50619483 0.51704943 0.24695511 0.1598399 0.32647237 0.16215211 0.19318208 0.33140397 0.41860157 0.4154638 0.1922827 0.40710807 0.3870097 0.6478158 0.62430227 0.13751158 0.37070417 0.3775072 0.64865476 0.65388197 0.63829434 0.57663345 0.4301402 -0.050421663 0.37115663 0.6178309 0.6327779 0.5166073 0.39729857 0.30980682 0.52857286 0.51086223 0.33802935 -0.0036922544 -0.12402376 -0.16047217 0.10389027 0.20821327 0.29067755 0.2533069 0.28137958 0.17664868 0.20694903 0.17757732 0.07971197 -0.0051675737 0.45204103 0.50139165 0.46089202 -0.29036957 0.0794138 0.37176198 0.34751922 0.24445036 0.12855873 0.12703477 0.09897207 0.31151927 0.43458942 0.4076278 0.31588838 0.11583473 0.03350582 0.037299804 0.3057509 0.38111746 0.43590498 0.42948624 0.3141978 0.33231437 0.32024944 0.264828 0.32119066 -0.15971583 0.33442885 0.2863304 0.2588508 -0.16501014 0.05071353 0.34258473 -0.028803945 0.34208435 0.46292743 0.18302871 0.48415387 0.502795 0.3174909 0.4748545 0.500142 0.36048985 0.33881095 0.45228693 0.4526076 0.27226835 0.37575254 0.1822997 0.056892 0.20762093 0.18445827 0.20592424 0.2599811 0.28094256 0.18022044 0.18035796 0.018728107 -0.01796595 -0.010497637 0.284052 0.058142085 0.060483564 0.20904347 0.058314897 0.08029066 0.17531943 0.23399007 0.022878442 -0.015197046 -0.054558486 0.6183518 -0.026035182 -0.13352868 -0.11900419 0.09060264 -0.1739493 0.7125031 0.3805685 0.29050514 -0.02294653 -0.09269147 -0.09566019 -0.15291244 -0.154585 0.70034915 0.7356076 0.58498144 0.5709913 0.31794453 0.23606463 -0.13867457 -0.12414512 -0.13534372 0.55189824 0.60537255 0.66218007 0.64462954 0.6200248 0.55005103 0.28729022 0.2760464 0.25260314 -0.1303532 -0.10354768 0.64083004 0.62512434 0.5644548 0.3529831 0.3091104 0.56651235 0.6137949 0.3184195 0.4033099 0.70598364 0.6937529 0.43020684 0.75672114 0.5170997 0.7568547 0.6545293 0.7436192 0.79301965 0.7845348 0.9155055 0.93289673 0.872925 0.6480601 0.7433115 0.85465944 0.67249334 0.5417976 0.5423164 0.3441156 0.22436146 0.43422592 0.22405632 0.18075539 0.19725733 0.28741 0.19253707 0.34570515 0.37019238 0.3483074 0.6327076 0.6374564 0.6000995 0.49046034 0.15632617 0.31370834 0.3370159 0.34863353 0.64551294 0.6514012 0.3391506 0.19082674 -0.068641566 0.32781872 0.6001521 0.25292093 0.027184192 -0.040644627 -0.08262531 0.25687867 0.38739818 0.088865474 -0.036790825 -0.022884224 -0.11779354 -0.24988437 -0.312682 0.14875883 0.30375344 -0.13500349 0.0729028 0.3748179 0.36106563 -0.29001543 0.17044145 0.4152432 0.4260245 -0.35489178 0.4445083 0.4424811 0.22451371 0.25947124 0.42193812 0.38835478 0.27340886 0.21534237 0.08993173 0.12018118 -0.19047919 0.08463858 0.09071967 -0.19262667 0.16241774 -0.27906787 -0.08629243 0.21043496 0.03965483 0.056959957 -0.11240067 0.2375124 0.33515257 0.41124195 -0.15815043 0.47745767 0.4984997 0.21927494 0.528795 0.25071475 0.51358503 0.24137661 0.10052981 0.4296578 0.45526302 0.10474626 0.22289784 0.37035155 0.12438843 0.17710406 0.007923506 0.23819771 0.1996696 0.2107073 -0.22547999 0.24133283 -0.1118166 0.21587864 0.061404087 0.1495539 0.11552012 0.059781086 0.026573157 0.32228798 0.061899133 0.33765465 0.5290111 0.6984713 0.69553983 0.5142462 0.52903205 0.10552704 0.7454277 0.59207046 0.60792994 -0.056571238 0.44563895 0.67008567 0.71922684 0.6382118 0.64917475 0.6605511 0.64634216 0.63024515 0.5835996 0.3729457 -0.022918738 0.48471856 0.62532854 0.6131815 0.5687957 0.14160524 0.70229685 0.26964203 0.6445842 0.30649924 0.3143402 0.5235736 0.6372095 0.41519666 0.87070847 0.831586 0.7950231 0.807226 0.773477 0.718431 0.7514355 0.60549414 0.436607 0.5081821 0.58132935 0.29928678 0.32603675 0.28690764 0.18492615 0.57562685 0.55817187 0.52333075 0.23037352 0.16962907 0.14866403 0.22905196 0.31146258 0.3111164 0.6268997 0.0538925 -0.07841563 -0.053453907 0.30045053 0.51291615 0.00923147 -0.02500838 0.068644926 -0.17735903 -0.20188908 0.42683312 -0.08781107 -0.17984258 -0.08487201 0.056346007 0.026392125 -0.26079857 0.19477531 0.30941153 -0.18892151 -0.4374888 -0.28520715 0.15527366 0.4388275 0.3596174 -0.2711498 0.45111334 -0.36372918 -0.37075487 0.16709182 0.46431315 0.13681191 0.42301488 0.10337424 0.34777224 0.27798575 0.1594841 0.04684612 -0.14614771 0.101943046 0.027637415 -0.03386442 -0.12905072 -0.00076666474 -0.021056678 -0.12603065 -0.029920343 -0.068484426 0.2581986 -0.033736594 0.30370152 0.41553545 0.46131694 0.051165204 0.4951915 0.084381826 0.52118367 0.12527815 0.50822955 0.03152077 0.4530592 0.034562 -0.18179944 0.15938985 0.17229235 -0.3757889 0.21663824 -0.33198988 -0.34339735 0.10792221 0.09064312 -0.28598082 0.12742244 -0.010562884 0.18087646 0.17288983 0.13254426 0.06677365 -0.0031993948 0.09061585 0.15831959 0.14695509 0.07801297 0.00015994906 -0.080208674 0.38297474 0.2244803 0.6232854 0.4697793 0.69438493 0.49399364 0.5571792 0.48871964 0.5806601 0.66485626 0.6331489 0.12849125 0.3065011 0.30970502 0.65476644 0.63953114 0.6123301 0.57652855 0.50663435 0.28979704 0.6428653 0.1257038 0.19507296 0.4649936 0.52034825 0.2108295 0.24987455 0.3167433 0.2612112 0.41353044 0.7545512 0.73365223 0.7144865 0.6781423 0.622041 0.5967059 0.6461177 0.61068726 0.5535383 0.25439346 0.24807142 0.51863146 0.4939118 0.50832987 0.45520085 0.30888808 0.21810418 0.15972525 0.19105515 0.2568608 0.17630982 0.1663457 0.31489888 0.41045615 0.22368702 0.315062 0.38550392 0.372249 0.35570282 0.50611943 0.06250423 0.08618991 0.2700166 0.21108565 0.09682819 0.38393867 0.3576746 0.3165841 0.3970071 0.021094127 0.30513626 -0.15581319 -0.042109035 0.16486084 0.21254273 0.5179494 0.39631265 -0.044406727 0.09384155 0.16123322 0.17904527 0.4939837 0.44770533 -0.12504674 -0.25559127 -0.27058217 0.112784125 0.15952241 0.53216183 0.03382358 0.55735505 0.49368274 0.4507076 0.13320081 0.35958624 0.2177539 0.1803491 0.0878117 0.113065936 0.19697398 -0.0012919353 -0.0025784513 -0.060387395 -0.15940173 0.19162029 0.28556007 0.46591672 0.28755566 0.48768836 0.07402693 -0.24416298 0.4243898 -0.1572921 -0.1396782 -0.112817734 -0.28530836 0.11329475 0.15322484 0.1241854 -0.2945823 -0.040806253 0.11109728 0.09525735 0.19143093 0.18753266 0.3128981 0.20058991 0.15308532 -0.041077714 0.30418426 0.22294256 0.074119344 0.3885385 0.5262213 0.28375846 0.25091374 0.13026473 0.63400555 0.41553593 0.3470244 0.4893889 0.5806639 0.16311866 0.5733666 0.06936507 0.16322407 0.20100407 0.25461274 0.2841237 0.19701657 0.29215035 0.32234454 0.33574075 0.39007217 0.5002164 0.24474591 0.24201967 0.21307558 0.367642 0.3945266 0.17110404 0.2307232 0.0039050058 0.18582286 0.028016116 0.50853753 0.5841086 0.3864593 0.2834983 -0.09131676 0.04178928 0.04981629 0.20883106 0.5274879 0.5312136 0.5007911 0.40111786 0.38582283 0.34595016 -0.093641266 0.061991848 0.20472425 0.33912307 0.40946203 0.35724515 0.33015025 0.14145076 0.23029527 0.2722805 0.21404952 0.53225684 0.11320935 0.17424856 0.16956417 0.6141251 0.09748314 0.6577434 0.6237708 -0.026595626 0.61106694 -0.2231597 0.5264281 0.49053854 -0.08909393 0.18140799 0.2450971 0.41979313 0.31753755 0.2598863 0.24957189 0.2975198 0.089810364 0.30784905 0.33966428 0.031800676 -0.017353732 0.21035427 0.3367954 0.21111713 0.27201325 0.3797594 0.35376525 0.45865223 0.36795282 0.2497262 -0.016712837 0.08323698 -0.070757344 -0.14641303 0.13468005 -0.12529427 0.19768643 -0.14528956 0.22166832 -0.14969519 -0.31447557 -0.29513556 0.09671212 0.19605787 0.22183873 -0.1300087 0.16400763 0.016110174 0.12849069 0.16549318 0.2550992 0.25411096 0.2692565 0.222