# vtk DataFile Version 2.0
Really cool data
ASCII
DATASET POLYDATA
POINTS 6176 float
-5.730788 39.176792 2.9346936
-5.864531 39.084995 3.5760226
-5.948757 39.00313 4.3299737
-5.745193 38.857258 5.5292215
-5.8511734 39.67969 2.892068
-6.1310825 39.653423 3.4662185
-6.161289 39.636837 4.493407
-5.991711 39.43456 5.3111343
-5.8706584 40.26629 2.8411589
-6.1587315 40.335674 3.4129372
-6.2104554 40.389168 4.3837214
-6.060217 40.364532 5.2907662
-5.619587 40.3715 6.4932017
-5.7956696 41.265423 3.0279856
-6.1391773 40.969223 3.7630703
-6.0073504 41.4487 4.452924
-5.8687086 41.44379 5.1421804
-5.6303883 40.95503 6.1534185
-5.674656 42.035347 3.427212
-5.7507715 42.09524 4.3972597
-5.5191927 38.286777 4.9884996
-5.198166 38.13916 5.485168
-5.4056115 38.689438 3.5858788
-5.4387875 38.47943 4.3121924
-5.5611873 38.436935 5.3399487
-5.4478664 38.645607 6.059979
-4.9343753 38.73219 7.331379
-4.689246 39.11811 8.28446
-5.6188507 39.783756 2.619111
-5.2465806 39.508095 7.498953
-4.9108834 39.75089 8.254682
-5.268176 40.215458 2.307241
-5.489181 40.345695 2.5124135
-5.3150935 40.23462 7.2533846
-5.012569 40.435146 7.997042
-5.545852 41.26552 2.76021
-4.8621984 41.504086 7.45688
-5.140631 42.32176 2.9361682
-5.4411497 42.374645 3.512963
-5.585817 42.40124 4.500711
-5.287438 42.479675 5.4683056
-4.998745 42.31102 6.0052223
-5.0307145 42.795547 3.5786307
-5.1153836 42.8278 4.376711
-4.8222427 42.73225 5.955633
-3.5836759 30.935303 -1.957164
-3.637526 30.891644 -1.4745696
-3.6212668 31.063887 6.2192035
-3.6919422 31.502327 -2.1320474
-3.8068147 31.543968 -1.5238086
-3.7023687 31.540321 -0.86949253
-3.689258 31.450089 5.8347673
-3.7252407 31.470533 6.374613
-3.6296718 31.940886 6.8592057
-3.6088147 32.82293 -2.8095438
-3.7499075 32.556034 -2.3932912
-3.826434 32.61209 -1.6254159
-3.6917746 32.283363 -0.89601934
-3.7348142 32.225323 5.891574
-3.7712066 32.293823 6.4406114
-3.662764 32.30355 6.865488
-3.695467 33.155422 -2.3817635
-3.6183648 33.381252 -1.650327
-3.6627774 33.53838 6.3184958
-3.6127708 33.54323 6.924453
-3.6566994 34.08926 6.671419
-3.5438147 34.119 6.9283276
-3.8417509 36.937927 -9.217219
-3.8629582 36.797493 -8.6089525
-3.6883962 36.762836 -7.9759665
-3.9460213 37.49903 -9.268975
-4.0954676 37.66459 -8.533482
-3.7802072 37.764656 -7.8258257
-4.125348 37.567543 5.8270583
-4.2576714 37.568474 6.1803074
-4.5322576 38.137318 6.8799696
-4.0026326 38.021397 8.244662
-3.8440948 38.26029 -9.147484
-3.974511 38.231117 -8.59222
-3.7838173 38.337284 -8.122345
-3.868067 39.245472 1.9862922
-4.3771524 38.413494 7.6810017
-4.1047406 38.623272 8.477976
-3.9862127 38.877296 9.153648
-3.6834338 38.71606 -8.812055
-4.618329 39.460915 2.36134
-3.6012137 40.792377 0.4420968
-4.1213713 40.516655 1.5759565
-4.345688 40.303665 8.883001
-3.9277964 41.337627 1.3658264
-4.2207465 41.51964 8.356443
-3.849417 40.881363 9.075514
-3.9596226 42.091427 2.241953
-4.1530643 42.435005 2.4664
-4.187293 42.047558 7.5335374
-4.003428 41.9444 7.9726715
-4.754342 42.81825 3.1900668
-4.5658154 43.12007 3.8373024
-4.5686316 43.085125 4.3926272
-4.2883 43.24507 5.419668
-4.082769 42.93607 6.4095173
-3.1668375 30.333622 -1.9106748
-3.066374 30.195257 -1.50726
-3.0763278 30.334433 -0.8369237
-2.7406998 30.281929 5.6161466
-2.8194866 30.24381 6.165766
-3.17641 31.106918 -2.6224709
-3.2408473 30.798117 -2.274666
-3.4780927 30.591433 -1.6428401
-3.1997614 30.5629 -0.7717582
-3.224793 31.047096 -0.28470767
-3.0638368 30.937292 5.25899
-3.356495 30.823658 5.775205
-3.419922 30.8833 6.365446
-3.092211 30.740105 6.9068666
-3.1230366 31.65528 -2.8732421
-3.521816 31.604496 -2.5231378
-3.5396395 31.796692 -0.2889206
-3.5070455 31.768867 5.1998296
-3.3766918 31.234922 5.3793187
-3.3421602 31.610378 7.1953826
-2.8947499 31.730131 7.699433
-3.3731403 32.63594 -2.9789176
-3.4941542 32.129745 -0.41353306
-2.67474 32.225555 1.0184342
-3.215474 32.223583 5.09201
-3.4184527 32.41356 7.227163
-3.2581062 33.074024 -3.001818
-3.5127919 33.67928 -1.5246458
-3.3311749 33.450775 -0.36594963
-3.1099443 33.05608 0.29231405
-2.6920943 33.35961 4.512663
-3.347383 33.057243 7.344983
-2.88476 33.843624 7.8332224
-3.0726771 34.13185 -2.185993
-3.2300086 33.99745 -1.379617
-2.8554616 33.992393 0.47132096
-2.630285 34.57615 1.3858516
-2.9706693 34.07547 7.7924643
-3.2877345 36.14738 -9.125105
-3.2282438 36.008102 -8.491104
-2.91251 36.078186 -7.7952857
-2.6858914 35.5634 1.1824199
-3.1100895 35.84816 3.1589615
-3.2325253 36.84115 -9.829335
-3.477324 36.582676 -9.410807
-3.4546313 36.727 -7.842173
-3.278363 37.47609 -10.000015
-3.5574489 37.289574 -7.635635
-3.1272948 37.785435 -7.3130713
-2.7589428 37.32882 0.99990827
-2.9088273 37.582836 2.994831
-3.3656223 37.636074 8.168645
-3.1912854 38.323277 -9.9300585
-3.568808 38.511414 -9.427567
-3.4804468 38.02329 -7.6187305
-2.9203024 38.312298 0.12105796
-3.2820091 38.880405 0.6072915
-3.3422952 38.492264 9.629468
-2.9847407 38.666065 10.410514
-2.8411562 39.104656 -9.845126
-2.9987566 39.3276 -9.347162
-3.2765317 39.11074 -8.724097
-3.1810262 38.892975 -7.9538193
-2.8466632 39.517353 -0.9843614
-3.1130695 39.665596 -0.56834877
-3.1780183 39.378437 10.182898
-2.716404 39.73101 -9.093062
-2.7634501 39.727444 -8.865352
-2.8261647 40.067867 -0.87833434
-2.928308 40.473305 -0.52006185
-3.5506923 40.099823 9.436533
-2.8509135 39.845787 10.172878
-2.9364948 41.281948 0.15501827
-3.4335237 41.353645 0.7210041
-3.3628762 41.482613 8.930081
-3.4772632 42.319054 7.5053816
-3.6622393 41.75263 8.459208
-3.2184863 42.588875 2.9776926
-3.9945672 43.149796 3.927627
-3.477916 43.19148 4.3941793
-3.467659 43.4142 5.4407105
-3.6312385 43.229515 6.230367
-3.620279 42.832954 6.816394
-1.7968519 29.388435 6.313885
-2.4108138 30.269674 -2.0973883
-2.583859 30.087456 -1.5135053
-2.5371432 30.140518 -0.8801296
-2.2087104 29.847578 5.745664
-2.0476298 29.662094 6.406347
-2.122651 29.99461 7.0570197
-2.6299675 31.005144 -2.7095258
-2.612797 30.552948 -2.3882818
-1.9645972 30.774971 -0.08736983
-2.7301056 30.99692 4.983781
-2.6331186 30.408222 5.2834873
-2.478693 30.682253 7.360767
-2.597137 31.539238 -2.981434
-2.0695543 31.64945 1.124363
-2.5593333 31.698137 7.8376493
-2.3722584 32.382927 -3.2466416
-2.3702667 32.679504 1.3230118
-2.250324 32.484184 8.12155
-2.4391897 33.139633 -3.4237206
-2.153623 34.10323 3.248001
-1.9238175 35.325237 -8.916246
-2.0229566 35.16596 -7.909976
-2.5696313 34.06598 7.9210305
-2.5658412 36.072536 -9.76389
-2.303043 35.60637 -9.297955
-2.681796 35.5915 -8.614751
-1.5558946 35.555695 -5.5492787
-2.3779492 34.82383 -2.1746924
-1.9498608 35.683395 -1.5693772
-2.1428177 35.622993 -0.6596632
-2.1041226 35.642555 8.38739
-2.246533 36.712765 -10.2939005
-2.403091 36.416042 -6.969199
-1.6710835 35.718166 -1.602962
-2.2871425 36.178703 -0.173192
-1.8617374 37.83231 -10.731408
-2.5708604 37.581394 -10.38466
-2.5264728 37.599678 0.9553347
-2.6300602 37.396996 9.35318
-2.5184298 37.751938 10.042544
-1.8863794 38.166855 -10.686129
-2.5397477 38.521133 -10.323253
-2.649285 38.142914 -7.2202067
-2.3517847 38.749744 -1.2026093
-2.5854933 38.40487 -0.6477405
-2.1468737 38.49136 11.07148
-2.308566 39.413784 -10.061702
-1.9263204 39.354893 -7.653108
-2.6208644 39.21557 -1.1093667
-2.3141036 39.437004 11.052421
-2.0342023 39.916096 -9.860537
-2.355314 39.92387 -9.36279
-2.1487837 40.04886 -8.695519
-2.4351997 40.204044 -1.0328876
-1.9419775 40.14289 11.116032
-1.9578408 40.857685 -0.7164353
-2.4095457 41.196323 -0.12913996
-2.6422114 41.537235 0.32408938
-1.9518796 41.508728 9.68638
-2.5172148 42.01 0.91882277
-2.0553305 42.402676 2.0473855
-2.6245272 42.16589 7.3277454
-2.7492802 42.62301 3.7152092
-2.8084953 43.252373 5.492275
-2.9663455 43.065434 6.22642
-1.6339198 29.411694 6.0288706
-1.4244895 29.32863 6.4554434
-1.9636924 30.259272 -1.9617583
-1.9513019 30.156172 -1.4832153
-1.7572687 30.30567 -0.908266
-0.6129067 29.797302 2.4087198
-0.91564816 29.629091 3.4642804
-1.6461968 30.10826 5.0591893
-1.2308569 29.512434 5.3357987
-1.6672447 29.512987 6.64426
-1.4764374 29.62311 7.089137
-1.896574 30.981339 -2.6520247
-1.9926361 30.58931 -2.3631349
-1.4075978 30.45411 -1.6326468
-1.6056494 30.598425 -0.2526746
-1.034877 30.594847 2.6573408
-1.7974645 30.360018 7.5839753
-1.4598956 30.625942 7.9322553
-1.9213344 31.894825 -3.1569316
-1.068358 33.104607 -3.913909
-1.2367686 32.06474 2.323306
-1.2599343 32.87894 3.3526485
-1.371654 32.461723 8.365901
-0.9035258 34.38959 -7.8617635
-0.9232266 34.135693 -6.8801813
-1.455764 33.27728 -3.5089297
-1.5408974 33.618866 2.887631
-1.7659384 33.070946 8.466664
-1.3329579 33.229286 8.624131
-1.5103183 35.179413 -9.087102
-1.4937527 34.929497 -8.492669
-1.2756028 34.58659 -7.63967
-1.2892191 34.5482 -6.7687836
-1.4261594 34.922638 -5.921649
-1.7346623 34.510677 8.568317
-0.9478744 35.728863 -10.00878
-1.3777913 35.408802 -9.482149
-1.1947254 35.336025 -3.747102
-1.1129107 36.813374 -10.757971
-1.6829922 36.818607 -10.408103
-1.5311927 36.92957 -5.6765084
-0.9807778 36.202675 -4.674994
-0.82695436 36.492874 -3.2317674
-1.5656526 36.101017 -2.1032686
-0.9784279 37.350815 10.674767
-1.2680333 37.678547 -10.856356
-1.359376 37.17018 -5.7424173
-1.51985 38.390507 -10.679734
-1.1241928 38.216015 -6.0756507
-1.4369051 38.822357 -1.4662303
-1.2994928 39.05057 11.979488
-1.5453953 39.392223 -10.372037
-1.5454285 39.383213 -7.4998965
-1.253913 39.72113 12.103303
-1.5807623 40.090214 -9.883072
-1.5044869 40.18671 -9.541056
-1.4913065 40.240067 -8.631609
-1.2445391 39.898586 -8.142366
-1.7157015 40.507748 -1.0685233
-1.085978 40.76847 12.116169
-1.6097375 40.691456 -0.82628167
-1.7629964 41.055637 -0.35704148
-1.5225338 41.555805 10.647765
-1.1848124 41.264946 11.607678
-0.9025736 41.25037 12.100405
-1.5868541 42.04822 0.7264155
-0.8758589 42.49936 10.846142
-0.9434473 42.29718 11.250536
-0.823279 42.07041 11.792151
-0.837131 42.913788 1.3329036
-1.1483781 43.679283 1.6715337
-0.9539211 44.115025 1.8815997
-1.0293083 44.3247 2.5397954
-0.86266315 44.37915 3.030558
0.18593056 28.215302 -15.272684
0.17859587 28.059969 -14.587199
[...]
POINT_DATA 6176
SCALARS features_00 float 1
LOOKUP_TABLE default
0.5194591 0.5474609 0.515844 0.42003244 0.5398712 0.569124 0.55197024 0.4848255 0.5465214 0.58302295 0.6002991 0.546651 0.47607768 0.5794975 0.6066038 0.592278 0.561316 0.5039104 0.58972996 0.57974756 0.40535575 0.35416627 0.49138233 0.44985676 0.4003295 0.37034822 0.36058575 0.37831149 0.51280826 0.4217031 0.4368752 0.47449476 0.5014905 0.47306788 0.49077708 0.5467331 0.4667365 0.55343026 0.57783675 0.5728811 0.5550144 0.51176935 0.5611092 0.56658256 0.5167901 0.8366677 0.85349035 0.63476413 0.80369663 0.80983704 0.7856755 0.63042235 0.6342355 0.5896503 0.73214984 0.75393665 0.71765983 0.67156494 0.5950855 0.5739551 0.55325633 0.69949824 0.62716913 0.438474 0.43153042 0.39017785 0.38597655 0.8926104 0.8810208 0.8228115 0.91541624 0.8973582 0.8304904 0.28676492 0.2963122 0.31864902 0.28919142 0.84649503 0.8555051 0.82571137 0.26440665 0.32504988 0.33055288 0.3545857 0.79628086 0.41732028 0.36770552 0.3949362 0.45487413 0.3740089 0.41264713 0.396714 0.39402092 0.44968835 0.3969028 0.38828778 0.5410547 0.54892206 0.55923355 0.5480878 0.45546865 0.8473816 0.86416125 0.8806257 0.571031 0.5909548 0.78355056 0.82127976 0.860567 0.8760053 0.7942077 0.58460236 0.6166009 0.63455826 0.64220744 0.7369001 0.7811079 0.65288454 0.5914381 0.60662985 0.6020535 0.55183303 0.7223504 0.6122453 0.37320715 0.5459573 0.5149493 0.6987109 0.5653589 0.46067685 0.40313387 0.054797754 0.44827515 0.36731958 0.48478758 0.46402943 0.23660892 -0.007077843 0.3528546 0.736482 0.71770537 0.6616054 -0.034375466 -0.047278352 0.7763362 0.8066236 0.7880819 0.79726255 0.7851219 0.6757666 -0.031497166 -0.041072283 0.22202209 0.7671651 0.79582316 0.7753234 0.2575702 0.245727 0.33221796 0.33171466 0.71849257 0.7282264 0.7458782 0.7341752 0.54464436 0.5075006 0.3322732 0.70899165 0.7027937 0.49996543 0.44289702 0.37423325 0.29136512 0.335182 0.32892007 0.3207094 0.37554112 0.35617852 0.38431656 0.5273152 0.52185357 0.5281477 0.46747893 0.42270687 0.5147429 0.8028666 0.8430002 0.8527344 0.5138523 0.5454942 0.5748972 0.75172484 0.79385453 0.80042326 0.52658474 0.5453696 0.62216866 0.69203806 0.3553335 0.5319764 0.58894205 0.18748948 0.41170144 0.5763729 -0.21833916 0.42491347 0.37502828 0.32937273 0.62049127 0.5239735 0.5551399 0.23544005 0.15869804 0.031642523 0.07924749 0.1180751 0.6121414 0.52760583 0.017376328 -0.016506806 0.58667725 0.6705985 0.013804735 0.2266443 0.31173846 0.6013901 0.6886791 0.5445357 0.55969024 0.4556219 0.33296168 0.6926292 0.47860157 0.56035244 0.2941509 0.6839838 0.69905126 0.6621553 0.48742205 0.2849247 0.38501272 0.34486115 0.2868606 0.21933201 0.19310066 0.1196859 0.32353258 0.4072994 0.48313984 0.43155056 0.47829077 0.5017904 0.7585828 0.78267807 0.77105904 0.51266885 0.38668364 0.4070711 0.39682335 0.5348129 0.5316455 0.6716075 0.72474265 0.66676253 0.7464479 0.2929278 0.5538518 0.49258414 0.56356525 0.12550221 -0.26253265 -0.24092871 0.31180856 0.28870755 0.26950306 0.34056324 -0.24022704 0.32385376 0.267874 0.39611733 0.34455094 0.3048365 0.31166023 0.35971949 0.22966947 0.47917682 0.44501764 0.0033115745 0.52305317 0.559821 0.20004763 0.06822555 -0.03801483 -0.024148898 0.31845886 0.53887916 0.18615972 0.579468 0.1869519 0.5535917 0.3276459 0.6366129 0.33699816 0.32535484 0.65854204 0.65178907 0.5764057 0.43530872 0.40755665 0.3631607 0.3629648 0.32238948 0.31563583 0.36160424 0.39893946 0.16033307 0.37919077 0.39093298 0.41769052 0.2803915 0.41182676 0.49986643 0.51654124 0.5049602 0.7643794 0.746346 0.799366 0.8023704 0.8284838 0.802874 0.5385393 0.4711179 0.32215616 0.42994636 0.47120455 0.8033112 0.8273043 0.84991837 0.8583969 0.532864 0.54162014 0.4457507 0.385483 0.8358749 0.8512292 0.830228 0.48360187 0.45144626 0.32571465 0.15559915 0.32934842 0.07442688 -0.00050382223 0.2672447 0.25637636 0.13720985 -0.022400063 0.4268977 0.38371187 0.46720248 0.476148 0.4917456 0.48292023 0.055009443 0.33259624 0.50239915 0.11479486 0.09308529 0.4523509 0.54566056 0.5589973 0.1891697 0.14360735 0.1372139 0.4600972 0.51329917 0.5691399 0.15261108 0.36502242 0.3979503 0.18754813 0.44846612 0.16791385 0.46571526 0.42063832 0.40146464 0.43806094 0.4776057 0.5182057 0.5361141 0.40836477 0.5276288 0.5308299 0.5029827 0.5586474 0.51096463 0.68104076 0.7035804 0.6587087 0.61763525 0.5950403 0.3715365 0.74982053 0.75485384 0.6676507 0.5943439 0.44034952 0.5226462 0.40634912 0.3298803 0.24427944 0.78955215 0.81310713 0.67956436 0.36883616 0.30008864 0.77495944 0.8201408 0.8452543 0.83075607 0.681407 0.022760535 0.18806866 0.2649653 0.22976866 0.8280889 0.84802294 0.8275324 0.743857 -0.033627585 0.12526926 0.21303959 0.21803896 0.018411107 -0.010070324 -0.013028406 0.1934285 0.17990884 0.34148532 0.317159 0.4551079 0.4050579 0.2791436 0.45290866 0.32447863 0.4323975 -0.15770367 0.44385523 0.4950929 0.39273158 0.071979 -0.2879169 0.5202247 0.5329782 0.45881373 0.10644534 0.06027518 0.53504574 0.4322891 0.4003777 0.3251485 0.20248748 0.045353506 0.52174115 0.49038857 0.4249888 0.2950434 0.12767264 0.50028074 0.17747104 0.20737761 0.49096498 0.2762528 0.36255413 0.23385334 0.37120587 0.46347892 0.45509118 0.5048654 0.49725658 0.43137294 0.35488272 0.5185555 0.5084944 0.47634313 0.41654772 0.4750959 0.49550784 0.46803454 0.4620725 0.47301525 0.5906402 0.54857635 0.48889035 0.35019705 0.27503127 0.65055186 0.5369616 0.38495484 0.42909402 0.24247316 0.1655857 0.7246715 0.5121379 0.17461728 0.15309852 0.20891187 0.260079 0.7523651 0.7765171 0.59035575 0.091412775 0.06490207 0.79074955 0.83859086 0.76543105 0.6751641 0.12258144 0.10046653 0.11585065 0.02836768 0.02479373 -0.26008067 0.3090625 0.35838273 0.8325138 0.04167526 0.020979512 0.24661204 0.22928634 0.19161269 0.34349933 0.37040615 0.35995126 0.476129 0.5379636 0.3252415 0.5551268 0.5569034 0.25767887 -0.12441535 -0.08249023 0.54562855 0.56375545 0.6536331 0.6359601 0.10950877 0.55285823 0.5585119 0.785537 0.7662764 0.4251454 0.33773306 0.18221097 0.45145306 0.4914315 0.81462735 0.67779946 0.52182543 0.4139604 0.21795349 0.24906066 0.42988318 0.2659306 0.37212253 0.4013991 0.46285206 0.44644454 0.39376098 0.37179148 0.36374754 0.3697615 0.3895096 0.40332794 0.4623688 0.44627666 0.40805474 0.37316823 0.3992926 0.37747377 0.35326236 0.35211277 0.3986761 0.43000352 0.4027016 0.30301917 0.5027797 0.3864465 0.41414064 0.43552393 0.2917151 0.44755152 0.32573867 0.22720177 0.09371646 0.4223783 -0.026502982 0.044561878 0.40942228 0.44256818 0.6081903 0.53223264 0.20653312 -0.13766858 0.4259244 0.44573963 0.7381304 0.79085785 0.77034366 0.6172617 0.13600516 0.1584282 0.16177449 0.14675786 0.09717795 -0.24121705 0.43338498 0.43056655 -0.15683924 -0.071888596 0.15021701 0.41641194 0.27055517 0.20536585 0.52500355 0.31809825 0.5571237 0.58800185 0.45527583 -0.19103707 0.61006993 0.5879108 0.61201787 0.16874275 -0.018027788 -0.08990189 -0.12919542 0.5844296 0.76740986 0.3895386 0.35794842 0.41894284 0.5330744 0.86069006 0.8516138 0.7160583 0.574459 0.45659733 0.22862145 0.23987228 0.2108554 0.3390604 0.8750349 0.84386414 0.7870481 0.7062148 0.2596557 0.32270747 0.39093298 0.30031604 0.42474407 0.39923966 0.2931276 0.2329804 0.1759462 0.32527766 0.45783865 0.40997925 0.44369233 0.4740209 0.1912941 0.32902104 0.30990595 0.31611478 0.21812443 0.5105605 0.63351107 0.71322584 0.7122098 0.24779113 0.28701043 0.43694842 0.4462372 0.7054465 0.20228684 0.28796464 0.27025372 0.25919768 0.60949373 0.23963182 0.3105822 0.28283247 0.24075599 0.12537995 0.24082467 0.038627923 0.20270371 0.2149925 0.2526704 0.19662994 -0.057682224 0.19999732 0.46089214 0.49791002 0.20140615 0.09921162 0.078768075 0.03003554 0.14523596 0.19780508 0.16777898 0.12534896 0.49175268 0.5154599 0.5968387 -0.03453523 0.12082664 0.031410813 -0.2952797 0.48971242 -0.17884152 -0.3089049 0.48735073 -0.080371365 -0.3259058 0.2081738 0.010544613 0.38312572 0.35015136 0.23042187 0.4365747 0.5077289 0.3834562 0.5826285 0.57323265 0.4862085 0.6042214 0.6380977 0.59461486 -0.06338936 -0.010851238 0.60200894 0.757421 0.82676965 0.37071455 0.28918153 0.047231466 0.8905446 0.7091197 0.61492604 0.21926093 0.17854942 0.13033046 0.8826142 0.85607874 0.79866004 0.7171173 0.2751856 0.17464505 0.101386264 0.13680552 0.4869539 0.17847092 0.52570665 0.54181504 0.43153787 0.49562085 0.5607972 0.3600952 0.41282544 0.30203643 0.40146786 0.42736483 0.42058855 0.3807379 0.16077913 0.14586271 0.31418622 0.41089842 0.41919985 0.39282894 0.31455272 0.16610171 0.17227061 0.15747468 0.23424964 0.25131777 0.19620582 0.047406625 0.016507626 0.11234344 0.21155724 0.26907304 0.29134244 0.44441324 0.47764897 0.6525483 0.76047313 0.7045021 0.18613213 0.24052995 0.27219033 0.2889856 0.2693242 0.3658392 0.63629377 0.6022461 0.13799042 0.2708978 0.27002722 0.22806816 0.25878835 0.52792394 0.10412857 0.25059518 0.21388845 0.05391717 0.14996567 0.19167183 0.17756 0.021144828 0.11072567 0.2393003 0.39004543 0.4705029 0.5058073 0.13413058 0.08500752 0.51756144 0.53126574 0.28541347 0.02689473 -0.10681428 -0.07180372 -0.31832287 -0.33203244 0.51700056 0.4181685 0.4276462 0.26741472 0.075182766 -0.014817548 -0.27991727 -0.25322533 0.484377 0.23534924 -0.26336956 -0.26818818 0.35506797 -0.2827826 -0.27669442 -0.1017295 0.19263706 0.30567187 0.10646962 0.31289065 0.34978032 0.3030842 0.22592765 0.34362596 0.4547264 0.4065946 0.2242767 0.30208766 0.49124968 0.59216535 0.43921965 0.7244222 0.71545875 0.15940431 0.06444937 0.06665317 0.33162665 0.43143117 0.8558182 0.3704709 0.30673814 0.24909279 0.3015593 0.18644221 0.11973857 0.033447273 0.90184975 0.8911356 0.7925725 0.10925571 0.08269615 0.8610028 0.8122783 0.16626653 0.24413186 0.5533358 0.30841053 0.41280627 0.635463 0.6125064 0.6082872 0.6447418 0.30525035 0.36024052 0.4099299 0.4081915 0.1849913 0.24448395 0.40572202 0.34840035 0.17120083 0.15242493 0.3031122 0.19445264 0.18330646 0.17536318 0.19034316 0.27035245 0.2427789 0.22018164 0.30449298 0.41277188 0.5779493 0.71864474 0.7278235 0.6371435 0.26317462 0.19546872 0.28758013 0.28910622 0.23441088 0.2560578 0.60734516 0.5592617 0.2664141 0.17497544 0.2712882 0.16719994 0.21478659 0.51771975 0.16156992 0.13667357 0.10882215 -0.14966652 0.13766882 0.3935267 0.100967035 0.016356945 0.06704774 -0.005831181 0.039990354 0.17563531 0.42991322 0.46962935 0.16837505 0.14186826 0.49285483 0.50642824 0.21963066 0.25007695 0.5220952 0.5162022 0.32110006 0.014626054 0.445049 0.32717404 0.3729634 0.39043623 0.2303122 0.104259595 0.065701276 0.3967454 -0.16970348 0.3328207 -0.11996696 0.29483992 0.32637244 0.13237457 0.23476428 0.17197236 0.37414035 0.345643 -0.05900655 0.07940167 0.76131594 0.6154299 0.54946715 0.28458467 0.13303787 0.20747502 0.097194254 0.010666013 0.015837999 0.09090362 0.26396433 0.85446954 0.5379794 0.34581244 0.43680823 0.43975517 0.4708148 0.3835108 0.20323701 0.01745297 0.037592616 0.8152002 0.10390617 0.29197425 0.703883 0.6752761 0.22193234 0.44152677 0.73227286 0.4327072 0.5842513 0.667032 0.69170654 0.6897972 0.61527586 0.6732811 0.6797977 0.461704 0.41522107 0.35047513 0.24188772 0.17559981 0.2073506 0.3044017 0.34458527 0.2444928 0.23992932 0.15327245 0.14416935 -0.020621657 0.20654577 0.1469996 0.23625953 0.16510478 0.2667721 0.29982263 0.2875784 0.5767251 0.65669906 0.62652093 0.31355184 0.2926585 0.19232158 0.15899082 0.60441744 0.55319065 0.3068741 0.12658095 0.11915961 0.19001195 0.5180296 0.4810586 0.2336212 0.0744171 -0.0142412055 0.39283085 0.13962245 -0.06527315 -0.18569244 0.18735094 0.18618253 0.14562385 0.46092963 0.5234198 0.5274524 0.22623445 0.5420425 0.2616734 -0.11814483 0.5194514 0.46989876 0.25768185 0.2852526 0.100814186 0.04300786 0.44388998 0.41664848 0.23631237 0.00662148 -0.033548392 -0.18062502 -0.13773996 0.12800935 0.18536347 0.4234302 0.3876419 -0.1332506 0.37427533 0.39284766 0.3394509 -0.22246805 -0.041282166 -0.040715173 0.27037418 0.30948722 -0.21770181 -0.042311892 -0.042571142 -0.036140174 0.12138114 0.21085781 0.5024682 0.4550655 -0.05563039 -0.04986462 -0.037969235 -0.027057264 -0.06985542 0.11480291 0.04278475 0.037346013 -0.031903677 -0.002120411 -0.023082018 0.34472615 0.39735657 0.39440864 0.20250982 0.109961495 0.31282693 0.3156286 0.24601811 0.2996145 0.41220143 0.44841212 0.47112918 0.3953637 0.50757945 0.5102467 0.4661587 0.403352 0.35630488 0.381195 0.62744164 0.37588006 0.4103461 0.5111383 0.677183 0.72470003 0.5131207 0.5950266 0.7475389 0.75672966 0.6403706 0.6992327 0.7285367 0.7399484 0.6940483 0.5216388 0.49263245 0.44597483 0.36172685 0.50529313 0.4999315 0.4951686 0.3976679 0.2810566 0.20808223 0.87081504 0.83768547 0.46397793 0.43204033 0.15799113 0.06190978 0.6111493 0.85514694 0.8670231 0.81931806 0.739598 0.10079465 0.5975665 0.5840564 0.8302381 0.8434253 0.8110374 0.13014245 0.06805135 0.10899188 -0.0235098 0.7975882 0.7353934 0.6752025 -0.016168416 0.045167595 0.16418557 0.112174295 0.07043238 0.18003988 0.2984235 0.04814849 0.31990105 0.057740733 0.0679646 0.20632997 0.45664167 0.50545114 0.31923884 -0.025510117 -0.020410314 -0.052528374 0.40203005 0.41753632 0.25573546 -0.18198611 -0.02137183 0.25384402 0.35080397 0.19887133 -0.14518338 0.21587932 0.12675013 0.11740933 0.5088072 0.5481916 -0.073465526 -0.035071608 0.37569654 0.5083191 0.5594553 0.24367994 -0.040694788 0.113310136 -0.10199118 -0.08463752 -0.122876324 0.36052233 0.42179218 0.5250869 0.52640086 0.3941358 0.36201268 0.21992873 0.29281783 0.03505388 0.06394109 -0.12916517 -0.10684903 -0.11566677 0.2695128 0.3187654 0.47777534 0.56791085 0.5325973 0.444309 0.4225778 0.17245515 0.04830506 0.019897657 -0.12882888 -0.2670697 -0.054520525 -0.06135821 0.2852658 0.37902766 0.39731154 0.62924147 0.6380736 0.6506194 0.5289378 0.38782758 -0.048151743 -0.005874322 -0.0666403 -0.22082186 -0.042207956 0.25402153 0.3172203 0.36784154 0.66360676 0.69125414 0.6835239 0.56518316 0.30345726 -0.2215051 -0.18762623 -0.13300359 -0.050085448 -0.03829604 0.2388448 0.29671738 0.41894156 0.24260378 -0.11311641 -0.15324016 -0.11616914 0.51042265 0.49969253 0.45193458 0.3640955 0.07207012 0.56396496 0.5569297 0.46926558 0.31885058 0.5498491 0.46602207 0.41983682 0.39779118 0.35298288 0.40630674 0.435865 0.43543538 0.45797744 0.49925864 0.49919719 0.46578637 0.404585 0.34670633 0.4119599 0.46366113 0.5261632 0.4513005 0.49524337 0.61126876 0.676919 0.6028566 0.6780543 0.7151065 0.6857197 0.49422327 0.5229442 0.5287926 0.4893545 0.4163259 0.3403626 0.51958776 0.22655079 0.62532413 0.6077896 0.5782068 0.8541928 0.8587167 0.77685857 0.6741706 0.437676 0.14631377 0.0657145 0.13719857 0.2915951 0.30106997 0.5956758 0.6234648 0.6163527 0.59475017 0.5560111 0.8085102 0.82634896 0.63130224 0.24724542 0.019085124 0.043303907 0.24607675 0.60683805 0.61197233 0.624288 0.62689686 0.79594123 0.8213974 0.5687424 0.446115 0.059614416 -0.06733679 0.064464085 0.2779579 0.56708 0.46370012 0.44630212 0.5318882 0.6401869 0.6506432 0.77658236 0.77929616 0.7432206 0.571478 0.5694245 -0.04151524 -0.11359887 -0.17481855 -0.21372783 0.08884415 0.21251133 0.14720123 0.27023968 0.34329408 0.4543628 0.6045889 0.6341417 0.7580379 0.7348949 0.69422436 0.60726094 0.38592306 0.020218693 0.11172923 0.074808195 0.21805485 0.30225614 0.55101883 0.72674847 0.6698352 0.16098954 0.13749626 0.07848084 0.05416051 0.017672535 -0.21225378 -0.17907093 0.093520135 0.26260895 -0.09434569 -0.0115272775 0.050296456 0.027397059 -0.19186476 -0.15812561 0.59915733 0.15236525 0.2650521 0.57567686 0.58951473 0.58155096 0.54591006 0.09889169 0.17365889 0.21735537 0.23454581 0.5420905 0.55572873 0.5215546 0.41957176 -0.041178487 0.120404735 0.15490913 0.49394 0.46326596 0.44680148 0.26036164 -0.06193849 0.014384717 0.06941188 0.4746593 0.42086536 0.20402026 0.091053076 -0.13882588 0.4439972 0.4045007 0.13188867 0.1390833 0.08408752 0.05494991 -0.15757798 -0.13363971 0.71225226 -0.030669577 -0.107725665 -0.14300488 0.756722 0.72884536 0.6865332 0.570327 0.012157045 0.10226764 0.7437475 0.7048683 0.6463806 0.59878397 0.62429273 0.16724311 -0.05697928 0.0039631166 -0.055953205 0.08885159 0.08193049 0.6111579 0.6531794 0.52437115 0.44258744 0.3206226 -0.1662216 -0.07115928 0.0029357597 0.67532444 0.70769167 0.6411382 0.5166292 0.480043 0.4434929 -0.019320477 0.45380455 0.52578694 0.33673877 0.19188839 0.38954824 0.41573983 0.40402773 0.33950576 0.5279753 0.5290632 0.49730593 0.37829977 0.253848 0.42613798 0.43732643 0.42158043 0.44641078 0.4276319 0.3990796 0.41282427 0.4512512 0.44173092 0.46122932 0.47865605 0.5129316 0.5350119 0.52734834 0.53210926 0.57512194 0.55213416 0.57677394 0.57800514 0.59304816 0.64265263 0.6143082 0.63265073 0.65481263 0.35635954 0.36839026 0.2967387 0.38181943 0.29004854 0.17984617 0.5400036 0.5656687 0.5244894 0.42891967 0.33700532 0.5462918 0.5937983 0.53887594 0.4723478 0.77519095 0.8539494 0.6136861 0.59576833 0.3039628 0.34478402 0.34301448 0.54662293 0.5298941 0.5278789 0.73775566 0.7751049 0.44157785 0.17286524 0.32480347 0.5005032 0.6010663 0.62503946 0.74268806 0.33104116 -0.351078 0.16487549 0.6502507 0.6451309 0.7569884 -0.20018762 0.08405169 0.040318504 0.61540854 0.5987034 0.757239 -0.047584422 -0.05782508 0.05077208 -0.06365586 -0.07352435 0.42374504 0.5425854 0.7526376 0.6802772 0.48342896 0.40737802 -0.29917002 -0.34506914 -0.08667899 0.17533031 0.707338 0.56042016 0.28390044 0.17140165 0.5172876 0.54878104 0.6051659 0.025273047 0.46972322 0.5421068 0.3823598 0.38397396 0.5058998 0.13464202 -0.47978687 -0.060148478 0.39944297 -0.04452706 -0.4042611 -0.14609571 0.45656404 -0.02353786 -0.07845895 -0.12178348 0.6396187 0.3796746 0.3677733 -0.03868763 -0.08513864 0.77849406 0.7371582 0.7057107 0.622028 0.45755464 0.50069195 0.5887674 0.58943576 0.3430744 0.25065014 0.07975453 0.801494 0.77367747 0.5524274 0.6297504 0.25589266 0.451528 0.15703583 0.7915123 0.76114 0.69257593 0.596576 0.4772034 0.46701938 0.61298275 0.43863183 -0.025697783 0.11532105 0.17272745 0.7375276 0.70043516 0.6522229 0.57785 0.45166445 0.44982728 0.5513113 0.59642506 -0.2928595 -0.10791996 -0.0052293018 0.6341207 0.61058354 0.55267143 0.63677144 0.66075873 0.58341867 0.45060843 0.45365644 0.3269267 0.37398672 0.111326344 0.43167654 0.40706623 -0.38928896 0.28566504 0.3090807 0.48106837 0.51054096 0.072992206 0.47685897 0.4927109 0.40124306 0.247174 0.45921043 0.43211722 0.35741103 0.24724546 0.5223548 0.40455252 0.3191732 0.40422684 0.59947866 0.60843694 0.48719043 0.6791506 0.69506 0.6168306 0.6934849 0.7085842 0.7137625 0.7201252 0.7286597 0.75185233 0.45364454 0.49751687 0.6231364 0.250038 0.272766 0.28590137 0.37303975 0.45713535 0.46008193 0.39524016 0.22125483 0.2713607 0.28785217 0.31960934 0.2542429 0.2629955 0.11337806 0.3421948 0.24069321 0.06250124 0.05879766 0.14987235 0.063428916 0.5039412 0.5179389 0.5012716 0.40746427 -0.28917974 0.1548127 0.29734462 0.33424175 0.33741343 0.33495045 0.47736079 0.37475365 0.36978063 0.6887115 0.7654055 0.5197595 0.19902943 0.010992333 -0.17246966 0.3489057 0.3407066 0.32604027 0.42038864 0.47818488 0.51724845 0.6710191 -0.10293062 0.21054044 0.4091438 0.56759405 0.6714356 0.59080493 0.19269797 0.18582663 0.592319 0.696606 0.09884982 0.031853415 -0.1569305 0.524911 0.72773 0.47706503 0.6736466 0.69792306 0.1525073 0.6835636 0.66413546 0.48994672 0.17346226 0.48930758 0.5245402 0.47947872 0.2010986 0.18817912 0.44980264 0.49294502 0.30257618 -0.04926822 -0.07106721 0.19419065 -0.15550262 -0.14176989 0.6601985 0.5198594 0.3962998 0.39827576 0.40993798 0.3930816 0.31138584 -0.0107337255 -0.002467366 0.7605517 0.70256174 0.58636427 0.21242166 0.054414384 0.08849494 0.8019624 0.6156249 0.51888204 0.16015172 0.09926571 0.14466247 0.14531639 0.775563 0.78763276 0.4832642 0.25508964 0.3031806 -0.0021789968 0.036987603 0.17067884 0.7346926 0.6956921 0.48448867 0.47851104 0.48381227 0.39114404 0.47170734 -0.21296823 -0.059117448 0.64137375 0.58106756 0.47733158 0.41032225 0.4292971 0.44774663 0.5597141 0.5891051 0.5010437 0.37899762 0.3663192 -0.2844308 -0.22875857 0.28567672 -0.28401798 0.3808956 0.03710717 0.40980166 0.16586691 0.4106989 0.41238022 0.39669457 0.36009416 0.21314675 0.54488945 0.34254098 0.459586