# vtk DataFile Version 2.0
Really cool data
ASCII
DATASET POLYDATA
POINTS 6139 float
1.2696531 27.04078 16.669178
1.2591221 26.928814 17.315544
1.309214 27.588861 16.099508
1.0685796 27.601368 16.69754
0.99543035 27.609207 17.318592
1.2858179 27.547707 18.076078
1.2659131 28.259012 16.18192
1.1184849 28.324118 16.54095
1.0623145 28.382727 17.424587
1.2384909 28.375502 18.02599
1.2908502 28.902817 16.566797
1.3616261 29.302832 17.546282
1.4324374 29.117538 18.030952
1.3506801 47.200806 6.6475425
1.3047538 47.283375 7.2052336
1.2076266 47.819527 4.730168
1.1466558 47.666386 5.609069
1.1000462 47.740723 6.69317
1.1966276 47.77791 7.4149246
1.3055935 47.935997 7.8645897
1.256687 48.156776 4.177493
1.1701806 48.481083 4.5874124
1.0509211 48.63429 5.4385633
0.9970592 48.392418 6.4039454
1.0922399 48.461742 7.3842416
1.2949979 48.364265 7.884848
1.3358343 49.372704 4.846635
1.2378232 49.476643 5.506856
1.2258431 49.255074 6.5029507
1.2492743 49.05546 7.4223146
1.4348428 50.02527 5.411384
2.2450068 26.034756 15.992085
2.0657082 26.104704 16.493801
2.1001682 26.027327 17.30528
2.361265 26.959187 15.136685
1.9065236 26.780008 15.799002
1.6156471 26.563322 16.568163
1.5677123 26.599783 17.445768
1.8673406 26.6581 18.274609
2.0450578 26.948376 18.765553
2.2140017 27.481918 15.152829
1.6077757 27.422195 15.797587
1.4608724 27.67304 18.320404
1.8445859 27.589916 18.83061
2.218915 28.573832 15.286308
1.7202652 28.4585 15.773028
1.5327674 28.87224 18.412031
1.9655976 28.386486 18.994137
2.0502155 29.541697 15.740174
1.6213261 29.498999 16.447388
1.5211493 29.567558 17.597527
1.7075338 29.408264 18.356207
2.0306077 29.459545 18.839659
2.084227 30.125418 16.081388
2.0001664 30.222141 16.445272
1.973828 30.308968 17.510126
1.9788642 29.902718 18.42143
2.2459226 30.672285 16.865662
2.2686038 30.668169 17.119244
2.4388316 42.98632 -1.2148842
2.474457 43.27952 -1.4751676
2.1331007 45.771465 23.129242
1.9559674 45.734467 23.624987
2.0222087 45.59522 24.274723
2.3042493 45.780903 24.929838
1.7239493 47.30691 4.338249
1.6471419 47.114937 5.45684
1.792736 46.849472 6.595379
1.6674426 47.087917 7.432793
1.8910394 47.076202 7.7915845
2.0903144 46.54682 22.90923
1.7775166 46.439224 23.741806
1.8229504 46.487362 24.337072
2.1893275 46.750347 25.132097
1.7098118 47.75061 3.9513109
1.5146631 47.374092 4.514234
1.4714667 47.361958 5.8223443
1.4036398 47.49503 7.5863366
1.7025459 47.735744 8.143223
2.0409815 47.555523 22.809397
1.8376406 47.36472 23.448221
1.934977 47.293194 24.459963
2.254146 47.386757 25.070833
1.5506718 48.584408 3.8568614
1.5695157 48.332096 8.199907
2.0796502 48.36498 8.645208
2.150885 48.298435 22.7677
2.0609503 48.358242 23.343554
2.1841798 48.35373 24.18674
1.7245679 49.231197 3.9916666
1.6156995 49.704037 4.4383693
1.4802662 49.279167 7.568326
1.7654631 49.22423 8.060282
2.3475902 48.751236 22.862175
2.2856534 48.793507 23.414694
1.9820659 50.109123 4.08266
1.8615856 50.371574 4.598451
1.7941464 50.59724 5.5094175
1.6615887 50.122932 6.4801188
1.855629 49.86611 7.4361544
2.2172136 49.973095 7.8990574
2.1710556 50.932537 4.779361
2.0150669 50.90069 5.351783
2.0988326 50.784576 6.262657
2.352329 54.61807 13.659257
2.2943103 54.685467 14.479951
2.2820072 55.000668 14.978207
2.2980413 55.60109 13.157935
2.1158197 55.495506 13.677807
1.8772684 55.66891 14.434092
1.839445 55.79252 15.587052
2.0249944 55.82379 16.169325
2.283238 56.394924 13.064426
1.92627 56.422157 13.759781
1.6710804 56.57876 14.58868
1.5877355 56.597054 15.580456
1.8699 56.6412 16.306005
2.1096368 56.620426 16.637278
2.352767 57.123898 13.046719
2.1292636 57.45754 13.620662
1.7466018 57.46114 14.655359
1.6215506 57.39819 15.522587
1.833969 57.402317 16.183342
2.1646514 57.031403 16.639273
2.2000358 57.916134 13.9552145
2.0129921 58.037025 14.724397
1.9320297 58.062035 15.456255
1.9908981 57.97316 16.018806
3.1626747 25.299118 15.975897
3.1480289 25.176897 16.46003
2.8970652 25.322235 17.016176
3.0325494 26.031977 15.160738
2.7069292 25.887596 15.666326
2.5656652 25.659025 16.229702
2.7408745 25.619429 17.469624
2.577134 26.192057 18.41331
3.1840327 26.00686 19.14249
3.169291 27.065865 14.326537
2.7062223 26.712461 14.912623
2.4135122 26.309362 15.446495
3.086729 27.512228 14.405275
2.6346412 27.53729 14.739702
2.6480758 27.40825 19.345167
3.1352215 27.386032 19.846157
2.6949508 28.184204 14.840053
2.620811 28.13113 19.443344
2.9284248 28.694286 19.770908
2.754942 29.41994 15.181888
2.4856453 29.690933 15.4552145
2.6364474 29.322304 19.362246
2.892873 30.035942 15.343532
2.592761 30.391575 15.748522
2.373652 30.584131 16.35526
2.5123253 30.464256 18.410498
2.6912847 30.274837 18.911663
2.7897913 30.774603 16.074314
2.67865 30.824202 16.468163
2.667723 30.829962 17.403286
2.9002094 30.599283 18.579052
3.4917223 37.237274 23.245394
3.306578 41.17863 24.14431
3.194789 42.156643 -2.9081018
3.0373585 42.068966 -2.3630698
3.029921 42.024307 -1.4795636
3.0466924 42.20289 -0.93300045
3.2329843 41.884735 22.090132
3.1358666 41.816326 22.505762
3.0321195 41.801086 23.46847
3.2052796 41.69148 24.448189
3.3659954 41.91085 24.82353
3.0717094 42.578888 -2.9618487
2.7249112 42.671394 -2.3591888
2.631072 42.599476 -1.530211
2.7475076 42.669514 -0.6252623
3.0985756 42.844845 0.50868726
3.1063418 42.694706 21.885275
2.9216962 42.521774 22.41961
2.877439 42.54457 23.502129
3.073678 42.40743 24.256758
3.139925 43.24423 -2.9986877
2.748501 43.37099 -2.3333435
2.5581396 43.50697 -1.5424348
2.6179824 43.297543 -0.69605166
2.8600883 43.366173 0.29069155
3.2447743 43.297848 21.820244
3.0497057 43.33031 22.424282
3.333481 42.891766 24.458946
2.9958336 43.94966 -2.2365773
2.80883 44.040657 -1.5219262
2.7935123 44.09317 -0.33446288
2.9279966 44.56692 0.53084004
3.109541 44.561962 1.2607213
3.250571 44.079407 2.2144883
2.8018942 44.56597 23.817636
3.2371156 44.664536 -1.2850604
3.1799061 44.988148 -0.07033623
3.2921717 45.44869 0.61395913
2.6331038 46.28349 6.635893
2.8450472 46.336895 7.4794326
2.8097887 46.1434 22.437328
2.6023266 45.7237 22.744612
2.6790237 45.559093 25.294779
3.0126572 46.04257 25.94119
2.4297245 46.53678 7.5841007
2.7034388 46.88411 8.142347
3.1206524 47.205082 8.748059
2.800307 46.449547 22.446796
2.4798365 46.61999 22.543064
2.4172635 46.529366 25.463968
3.0175858 46.44133 26.045244
2.3026538 47.5096 3.76321
2.3633363 47.397896 8.469016
2.805204 47.65788 8.919281
2.80309 47.611214 22.11395
2.4840844 47.42012 25.391466
3.0386982 47.35318 26.005371
2.8234663 48.511166 9.193723
2.6465907 48.344196 22.242409
2.4555593 48.483807 22.434177
2.6670392 48.41906 25.013102
3.2667377 48.01328 26.041786
2.645692 49.217426 3.514543
2.792302 49.40742 8.955799
2.6637478 48.997704 22.77958
2.693442 49.176205 23.371397
2.678547 49.056347 24.366953
3.1397712 48.97945 25.11744
2.5722647 50.518482 3.8485825
2.5439858 50.50121 7.6321507
2.932184 50.404232 8.371816
2.645486 50.83022 3.9663851
2.6278076 51.195744 4.5812635
2.4049811 51.223633 5.2336
2.6673772 51.273567 6.2233524
3.1368344 51.599815 5.244258
2.960256 54.087337 12.917447
2.831809 53.93309 13.435301
2.9649658 53.76091 14.295998
3.105322 54.001675 15.165285
3.135084 54.862724 12.393923
2.746613 54.5773 12.810583
2.4767995 54.70915 15.292543
2.589461 55.052456 16.032976
3.049695 55.052788 12.381243
2.6307974 55.636734 12.737873
2.4641695 55.568577 16.438705
2.6650093 55.67415 16.662563
3.045759 56.42889 12.385761
2.6951609 56.74375 12.640451
2.604151 56.657665 16.886934
3.1211457 57.384068 12.427689
2.6670306 57.38959 12.804726
2.4392204 57.698982 13.286413
2.4819272 57.201553 16.797632
2.945783 57.961918 12.929279
2.670631 58.136806 13.5907955
2.5727146 58.433502 14.585768
2.4377615 58.436485 15.644124
2.4626706 58.201336 16.136976
2.7060435 58.563915 14.9671
3.6548345 25.212032 15.8433895
3.8105254 24.841032 16.544025
3.5009327 25.003508 17.448322
4.02604 24.679949 18.692965
4.1790156 24.681879 19.420216
4.183954 24.957321 19.932514
3.7925587 25.823326 15.074272
3.5604804 25.39218 15.600577
3.7963336 25.223999 19.545168
4.085435 25.5994 20.08723
3.6006835 26.75456 14.322166
3.5202997 26.608025 14.50663
3.7553754 26.727623 20.119854
4.18445 26.724806 20.638279
3.4157786 27.45893 14.311222
3.7235367 27.417318 20.255499
4.0168157 27.534689 20.60155
3.385141 28.366764 14.552694
3.5552459 28.25826 20.294231
3.1829555 29.501705 15.094853
4.0785427 29.404415 20.419144
3.615743 29.984087 15.245566
3.1028454 30.637161 15.607741
3.8963554 30.224594 19.61751
4.3214955 30.098158 20.54922
3.453045 30.804028 15.946606
3.5374324 31.036818 16.36341
3.2406774 30.971842 17.44369
4.4122996 31.474766 20.108273
4.0389175 35.96773 21.758959
3.9466677 35.816677 22.566847
3.9103045 35.984238 23.53195
4.109512 35.736706 24.28248
4.265061 36.20249 25.387444
3.8338952 36.73201 21.760765
3.674197 36.44923 22.705458
3.632216 36.640892 23.360804
3.75604 36.5681 24.416222
4.0463076 36.729958 25.219164
4.3656707 36.797913 25.80478
4.2024117 37.456425 21.294369
3.8031826 37.222687 21.818663
3.567194 37.42204 22.596106
3.6106892 37.669365 23.478344
3.6581588 37.638187 24.26805
3.8842027 37.21782 25.13388
4.1385846 38.47554 22.174616
3.7546144 38.268795 22.590443
3.5819445 38.432106 23.4259
3.5781085 38.08188 24.240164
4.0508223 38.23532 25.3584
3.976685 39.05854 22.43895
3.6809368 39.620564 24.049685
3.8907273 40.87765 22.605341
3.5312793 40.689175 23.893131
3.7366138 41.182144 24.911139
3.5590549 42.050125 -3.061836
3.6049118 41.727097 -2.5720847
3.4136705 41.759804 -1.706314
3.7350454 41.84455 -0.70966405
4.0653014 41.75281 2.7343163
4.179358 41.762657 3.668876
4.274162 41.72588 4.0872965
3.547693 41.970543 21.678179
3.7373326 41.406677 22.362404
3.9499178 42.693623 -3.5691385
3.5762615 42.613956 -3.3590755
3.4330652 42.535034 0.31404507
3.6680238 42.65734 2.682832
3.8275495 42.41529 3.4040823
4.068074 42.442627 4.394779
4.2007003 42.682343 5.3342376
4.259282 43.051918 5.833024
3.7162476 42.582546 21.320753
3.4760232 42.646572 21.461546
3.4156816 42.25319 24.879288
4.462191 42.627262 29.107435
4.416821 42.48058 29.682604
4.4516788 42.432507 30.006132
[...]
POINT_DATA 6139
SCALARS features_00 float 1
LOOKUP_TABLE default
0.659696 0.669535 0.6562728 0.69599646 0.70018536 0.63576895 0.6729502 0.69750845 0.6799583 0.6206557 0.68169415 0.63650954 0.5993874 0.5491055 0.55079126 0.5929302 0.5920881 0.58139193 0.5785732 0.5782318 0.5875686 0.6100434 0.6224482 0.61383903 0.6006919 0.5944508 0.5853275 0.57475317 0.58859694 0.58780336 0.5392635 0.54829264 0.55448073 0.55228066 0.58704436 0.5942596 0.60739297 0.6327385 0.5755101 0.49240178 0.5958739 0.6271205 0.59500515 0.5032123 0.58961535 0.6261227 0.562184 0.4814431 0.618114 0.6540034 0.6258105 0.5634973 0.51133895 0.6245454 0.6289803 0.61491543 0.5598175 0.61830217 0.614805 0.7018384 0.72123086 0.62997127 0.6594702 0.5831112 0.48383033 0.5321474 0.53658944 0.5056126 0.51716995 0.4942382 0.7036982 0.71588933 0.6364975 0.48937294 0.5422052 0.5556035 0.56603444 0.5544133 0.54278886 0.7604303 0.757733 0.6187062 0.485573 0.5757972 0.5805081 0.54362655 0.7445106 0.71794546 0.6401103 0.5750914 0.56480354 0.5655194 0.5556284 0.7260691 0.69514114 0.5395011 0.53450197 0.51119304 0.5082866 0.49889445 0.46346858 0.5038439 0.49910593 0.4673878 0.5829452 0.5843568 0.59014714 0.5622351 0.60129595 0.6631301 0.67587763 0.6608038 0.58344865 0.63133466 0.74132717 0.7794456 0.7418212 0.7233518 0.620982 0.65968347 0.75430214 0.8254607 0.8165331 0.7577345 0.6799336 0.7312299 0.7919625 0.822528 0.4912929 0.46481532 0.45918947 0.550728 0.53611296 0.51694655 0.4738128 0.47998467 0.3905124 0.594342 0.58045644 0.56237835 0.5913209 0.5907643 0.3666225 0.29752964 0.5812186 0.36294627 0.29769707 0.5952081 0.60916686 0.399718 0.60720986 0.6183294 0.6221844 0.556251 0.4794799 0.6200056 0.61707115 0.5973195 0.5027402 0.43843055 0.3661614 0.8419993 0.8319769 0.73729396 0.66380805 0.57843524 0.5700446 0.46385968 0.34550488 0.29042304 0.84269345 0.8369454 0.75264573 0.6380094 0.49884248 0.5674698 0.56734693 0.4580696 0.3565449 0.8069278 0.8026415 0.710287 0.62988853 0.5384658 0.5398686 0.5531036 0.2929896 0.72451663 0.6455914 0.5515836 0.46010315 0.38885754 0.2683725 0.43294954 0.554633 0.45079896 0.34877253 0.36804742 0.33373642 0.51705575 0.51542544 0.4020892 0.36117208 0.41030937 0.391179 0.3464513 0.5672468 0.6515698 0.4377919 0.36364383 0.47640806 0.4593863 0.41666645 0.6955699 0.4348054 0.36853203 0.44537076 0.7260442 0.7325325 0.4577634 0.351736 0.47345757 0.4230742 0.71447444 0.6829032 0.5592712 0.39572388 0.5077077 0.39384896 0.3215883 0.49501115 0.47119546 0.47004336 0.40155625 0.38984177 0.4977937 0.5269882 0.4877701 0.4554572 0.49710378 0.51737523 0.5457946 0.549258 0.5032958 0.5374918 0.61068285 0.6025809 0.55089194 0.5844761 0.68629485 0.60135275 0.621976 0.64822197 0.7459717 0.6297035 0.6522162 0.6692759 0.7488746 0.79865134 0.6673324 0.47680438 0.42131275 0.40067577 0.46133012 0.51639897 0.5165625 0.5408336 0.49927253 0.4771417 0.46368578 0.59381914 0.58789885 0.33022183 0.3479856 0.5906024 0.2684182 0.2610135 0.575741 0.2233534 0.5864981 0.20002174 0.5768919 0.61206686 0.15838207 0.14687987 0.6139576 0.6029957 0.55115235 0.12212123 0.42384028 0.40727976 0.3718046 0.28695843 0.2482684 0.46707797 0.45396698 0.42203468 0.3462999 0.2885821 0.24952662 0.44055104 0.4744574 0.47140294 0.4178548 0.35969925 0.31194028 0.4411176 0.45267567 0.38490885 0.33529216 0.26955172 0.355241 0.21371365 0.45846504 0.34941623 0.2625787 0.8200979 0.8046781 0.7462189 0.60119885 0.1641058 0.16449653 0.15928194 0.56811357 0.5489964 0.7788011 0.80575126 0.5114293 0.21705878 0.20799446 0.21279037 0.21995655 0.2072301 0.5520891 0.5567835 0.2633975 0.3908136 0.45938796 0.50040174 0.7654696 0.77043426 0.25324 0.23468256 0.22136988 0.18922313 0.51630986 0.24904898 0.4670354 0.5074053 0.69939125 0.7089498 0.1964577 0.17624515 0.28042144 0.2479921 0.20890975 0.50791645 0.4446066 0.1361477 0.048832525 0.12722777 0.16123077 0.2829262 0.3399357 -0.040108487 -0.17496756 0.27958968 0.3009904 0.48137718 0.31144792 0.24640684 -0.06408684 0.1396995 0.30803975 0.58467245 0.30730242 0.2840408 0.009225376 0.35339868 0.2968039 0.57911575 0.36456132 0.33380157 0.25064558 0.2445305 0.66299546 0.67293215 0.29456836 0.22030433 0.32483375 0.4289688 0.14674553 0.50389904 0.30733132 0.44770265 0.36110646 0.12193223 0.24976186 0.34685582 0.16877098 0.25869024 0.33220726 0.3239187 0.58630097 0.42675743 0.41845095 0.35809007 0.5511103 0.6310208 0.6891664 0.4650573 0.40031797 0.598414 0.6531047 0.46935287 0.59351 0.54403406 0.58096266 0.7407135 0.60895294 0.6117784 0.704085 0.5724002 0.492536 0.5675239 0.39104044 0.44008055 0.5160952 0.51989985 0.43615338 0.38168618 0.4555205 0.526171 0.52449447 0.5267227 0.472566 0.44744104 0.59008586 0.37065184 0.595387 0.27468088 0.56480736 0.21798465 0.21018228 0.47106326 0.13381042 0.58049095 0.15647146 0.12900805 0.1348133 0.1740803 0.23964705 0.26960483 0.14488377 0.13576776 0.16662449 0.16860718 0.23202205 0.21972783 0.09907579 0.15203443 0.13887902 0.12733927 0.2110753 0.14955871 0.22531575 0.21393116 0.15261737 0.15244982 0.14130896 0.3316903 0.37769717 0.23267606 0.2105794 0.14969553 0.37704337 0.20366758 0.16907549 0.41313595 0.26463288 0.22757907 0.4062758 0.1114143 0.16387877 0.08116564 0.06200459 0.048842963 0.7250879 0.12859835 0.12889558 0.065934576 0.079790026 0.05908963 0.3176486 0.77967 0.7702066 0.7418213 0.5939704 0.49723527 0.14725927 0.13213947 0.20309456 0.192827 0.44362485 0.42281258 0.41536093 -0.022478713 0.3163156 0.41450894 0.5384418 0.7042211 0.77670336 0.7672771 0.2165077 0.19258958 0.41496888 0.52463377 -0.16955212 0.121322885 0.34354752 0.46467274 0.5668506 0.71005696 0.7782264 0.7155129 0.6939344 0.17494875 0.12620564 0.45234308 -0.07921101 0.45490435 0.55820376 0.6900227 0.7483827 0.65590703 0.52585906 0.12011317 0.06347494 -0.027451789 0.33432353 0.33138007 0.055548936 0.23624983 0.48665997 0.50554264 0.4479069 -0.004047893 -0.012259459 0.19717528 0.24208179 0.12879914 0.10633148 0.10243671 0.1405813 0.08160834 0.08444185 0.4728018 0.16189817 0.54127586 0.111046284 0.4186449 0.19058806 0.13364947 0.62190753 0.44160533 0.27138656 0.10124795 0.47798142 0.5657721 0.45341063 0.08596641 0.054864354 -0.045510717 0.6202241 0.2976281 0.1252092 -0.1451139 0.018587962 0.28848973 0.087293096 0.026153319 0.13251317 0.12350188 0.14732616 0.19767565 0.35559133 0.13645709 0.24716324 0.17396082 0.20689365 0.19293855 0.16642417 0.4856595 0.5400223 0.5869469 0.6358816 0.21422312 0.2881708 0.29736423 0.26403868 0.06313915 0.2694825 0.17779142 0.24538149 0.24967307 0.23187599 0.38964894 0.52508414 0.74559605 0.7423006 0.7094609 0.27579153 0.33387554 0.25793642 0.26687896 0.46519843 0.56269634 0.6710352 0.7707697 0.78511924 0.35333043 0.3005179 0.47236428 0.5779284 0.67377484 0.76819456 0.26663798 0.46730372 0.4913933 0.49739796 0.28308812 0.53573513 0.55329525 0.38448605 0.3750251 0.4957659 0.2239462 0.586385 0.5592589 0.24713697 0.496158 0.54017556 0.6225923 0.623495 0.58889836 0.6186851 0.42646766 0.48861963 0.34127694 0.48443136 0.46984613 0.40668374 0.43182564 0.36653668 0.5907107 0.6057042 0.66953903 0.27050042 0.654619 0.7139561 0.7382409 0.75678885 0.26883125 0.64421225 0.69160026 0.76231325 0.7683935 0.27293912 0.15028884 0.025490806 0.27169275 -0.032452397 0.17048761 0.18192595 0.17146277 0.22052923 0.24824601 0.1614777 0.15266626 0.24308097 0.12741241 0.194887 0.19736905 0.13501438 0.12966822 0.16445357 0.164605 0.114539035 0.10623218 0.3341235 0.48682627 0.5286335 0.41524106 0.4931084 0.106174685 -0.01695381 0.27664635 0.3951595 0.4928537 0.2021459 0.22202417 0.20307551 0.13172702 0.09408028 0.4321347 0.49435568 0.5023473 0.4416331 0.17069775 0.17577417 0.044698767 0.09538414 0.39540744 0.47822493 0.48380274 0.23424225 0.20352812 0.034834832 0.034782447 0.06345533 0.36821738 0.29144707 0.4530583 0.46230933 0.33868054 0.27106735 0.3239749 0.2688126 0.19623151 0.03681583 0.111811146 0.59209305 0.07801136 0.037921198 0.42314047 0.46678934 0.48509043 0.47489107 0.35799235 0.37070367 0.403548 0.37617928 0.36084962 0.3633994 0.4797597 0.68086094 0.78623956 0.74786663 0.68042725 0.18631436 0.15922529 -0.14129092 0.4203686 0.43174967 0.381857 0.30302733 0.4038036 0.43692842 0.4141445 0.39588177 0.35466444 0.48304915 0.08771371 0.7453692 0.7770767 0.7781805 0.15467753 0.060868837 0.32031313 0.2622811 0.2060318 0.19983846 0.30292222 0.3761536 0.4255216 0.4296041 0.40113404 0.40298182 0.789332 0.7306557 0.012266424 0.21890947 0.18814413 0.3455062 0.32606155 0.33545923 0.31608617 0.6899597 0.77294445 0.5916309 -0.035483696 0.26825577 0.10242671 0.31358004 0.44174337 0.59105814 0.4019137 0.2511105 -0.054773014 -0.19236869 -0.06999972 0.18881261 0.23266399 -0.061586883 -0.20745388 0.04220763 0.21631797 0.6094642 -0.14814715 0.6604067 -0.115632296 -0.094870396 0.14599748 -0.061866567 0.6495828 0.5973892 0.013595045 0.028526887 0.0031247456 -0.029309783 -0.07879044 0.10271021 0.2339992 0.33022442 0.6335071 0.58265364 0.38723004 0.1632648 -0.046460707 0.09198329 0.08368623 0.11596848 0.14535084 0.3266266 0.4578362 0.45810544 0.21745732 -0.104483426 -0.1440143 0.07182151 0.08069454 0.16597229 0.1996646 0.51711905 0.60099614 0.1223871 0.006045494 -0.0025835726 0.20326652 0.66860783 0.3143748 0.36071163 0.34333435 -0.0695035 -0.10210325 0.288377 0.28624123 0.3081856 0.7532764 0.70339185 0.11905883 0.044286795 -0.11492471 -0.10047441 0.35349357 0.31120768 0.5836916 0.6637434 0.77029145 0.76966894 -0.01835844 0.12525436 0.21931839 0.08296898 0.30416986 0.41118583 0.34609938 0.4735574 0.52641296 0.2212478 0.5602714 0.5925832 0.26326942 0.30841145 0.49557143 0.63136375 0.6208662 0.61113596 0.39720064 0.4416863 0.55563617 0.6266512 0.6569401 0.6463356 0.32440954 0.33354023 0.33488786 0.35739225 0.3160509 0.3511652 0.387813 0.29137808 0.26656142 0.6177421 0.28491962 0.29267544 0.3796052 0.6592312 0.6183252 0.4797874 0.38831988 0.2472921 0.28997645 0.64278305 0.6015749 0.5231577 0.44348732 0.35416394 0.45353347 0.4716037 0.2926374 0.5623976 0.52300686 0.44382095 0.49180943 0.5648985 0.25230366 0.40613133 0.59236586 0.75709164 0.21260092 0.15101367 0.438512 0.51285565 0.587518 0.63793933 0.6977196 0.13451378 -0.08216035 0.20666228 0.3346033 0.37098455 0.46266258 0.5409972 0.650038 0.71917486 0.70524514 0.17385897 0.019486792 0.19470079 0.30249175 0.366209 0.4016349 -0.062076513 0.29899922 0.33095515 0.32755792 0.45085028 0.4858562 0.46702868 0.030819744 0.1831836 0.44456542 0.4568472 0.39971006 0.13186958 0.13538122 0.111541696 0.13749461 0.3074115 0.32815573 0.36462778 0.3513018 0.18373184 0.09044945 0.44575995 0.51872504 0.5444659 0.14267658 0.12907553 0.17667149 0.35503584 0.34033215 0.5512148 0.56813216 0.22704977 0.20391116 0.1729565 0.18877152 0.1341 0.3065509 0.43138316 0.4343788 0.0052041262 0.1083128 0.5176239 0.23593739 0.2159178 0.19249588 0.44537264 0.3571064 0.123892725 0.11633435 -0.0068095475 0.024372905 0.46206212 0.2040024 0.16107588 0.3185987 0.30002564 0.14062792 0.054118365 -0.06622545 0.038629644 0.34672087 0.33536685 0.38627833 0.37483847 0.42442802 0.2847304 0.16249046 0.21046318 0.15116687 0.24669981 0.58472085 -0.16872361 -0.005744748 0.45100182 0.28370562 0.3225609 0.3238482 0.4527001 0.77544117 0.7269125 0.40338868 0.29331747 0.011653461 -0.3331091 0.26230788 0.14445058 0.3404899 0.704983 0.7697315 -0.35836178 0.2035819 0.23163682 0.1995755 -0.021299899 0.16085905 0.76328254 0.705914 0.6335201 0.06861374 0.12995677 0.07446072 0.23062876 0.25057882 -0.017914612 -0.34788847 0.753148 0.63391423 0.53449464 0.41516596 -0.26065272 -0.15711269 0.047082864 0.06545634 0.050597318 -0.024568629 0.14934409 0.07558721 -0.20668091 0.57857776 0.33687314 0.15060788 -0.25645602 -0.3072335 -0.12260103 0.06957398 0.12794423 0.17242533 0.17559242 0.09916322 -0.13488431 -0.04066646 -0.15284489 -0.0951575 -0.19171405 -0.28306103 0.036091182 0.07518515 0.08218565 0.17656814 0.17895645 0.1831951 0.1536019 0.08821137 -0.23472112 -0.051988058 0.26941723 -0.26778376 -0.10901525 0.049226105 0.044500697 0.039708987 0.17275336 0.17900887 0.038372945 -0.0579329 -0.14916632 0.5592073 -0.23033209 -0.20272256 -0.058268502 -0.19727296 -0.23809713 -0.24381866 -0.022398217 0.56366473 0.5695881 -0.124235794 -0.108515956 0.564219 0.60624135 -0.0112075135 -0.037226737 -0.04247931 -0.031028189 0.25045076 0.29264003 0.61226666 0.5901966 0.021283569 -0.09629015 -0.030156163 -0.02431878 0.029067472 0.40137455 0.3353676 -0.104706675 -0.034342892 0.5415476 0.017147712 -0.0097799245 -0.03813719 0.5928689 0.15542616 0.1622634 0.18062338 -0.16377452 0.64193106 0.65921026 0.20683998 0.21828863 0.15502322 -0.05392491 -0.006695725 0.19518444 0.27111858 0.43286547 0.5689073 0.6935597 0.68822 0.15548699 0.37450957 0.30540806 0.27940115 -0.05271967 0.040798526 0.47390932 0.59267604 0.23997615 0.27151692 0.31041977 0.63389623 0.35439664 0.49933052 0.5544574 0.61711156 0.6675427 0.6649992 0.65094316 0.5634771 0.5944786 0.22238865 0.2601589 0.27969602 0.19084114 0.1623142 0.23681456 0.2924894 0.32395297 0.30053496 0.18393949 0.17505676 0.1471645 0.25041646 0.23342663 0.65491086 0.32575446 0.14161919 0.09163317 0.16058497 0.6900837 0.6255003 0.47082305 0.3001452 0.221063 -0.008017538 0.11813413 0.27631068 0.19698113 0.7021781 0.6901982 0.65216804 0.43474424 0.3837497 0.22213408 0.085349046 -0.13197877 -0.07885113 0.0025400966 0.090722494 0.19165564 0.687899 0.665899 0.31111154 0.09276059 0.30267334 0.10241255 0.16004333 0.6610327 0.60623795 0.43144876 0.095611155 0.48187864 0.29991615 0.65653175 0.0469813 -0.07685844 0.35490823 0.5100379 0.5383933 0.01811527 0.059674572 0.251433 0.37071872 0.4150368 0.4368484 0.35642728 0.43518314 0.5698802 0.60129464 0.40967143 0.40894312 0.28901762 0.35994452 0.38057172 0.4374597 -0.17375697 0.34908086 0.2418071 0.28389427 0.42520863 0.2791471 0.035202254 0.2427835 0.2095278 0.26457655 0.34950697 0.05133268 0.08120673 0.12573813 0.29234928 0.1322947 0.0827052 0.1174391 0.011188164 0.42481714 0.36377507 0.5091237 0.56128526 0.19662964 0.13909577 0.28812474 0.10474512 0.2177349 0.28187802 0.007051442 0.67665476 0.78195536 0.5388405 0.48641115 0.31110832 0.332366 0.42906764 0.6461954 0.74455965 0.83628887 0.90176994 0.543952 0.15008587 0.03921391 0.08757116 0.20726478 0.6902045 0.7943956 0.8971516 0.9350777 0.50644654 0.25647122 0.059765548 0.07542819 0.22137117 0.16023567 0.08107872 -0.0013942122 0.92681587 0.23293807 0.28683817 0.21757762 0.11891304 -0.08759484 -0.088444814 0.25643674 0.09032506 0.12408102 0.73987573 0.5990465 0.3992043 0.2375915 0.31802735 0.73195493 0.7140366 0.56190896 0.48167443 0.4914904 0.33637264 0.13749 0.31830108 0.17238873 0.02567292 0.058990005 0.1594488 0.026335448 0.109205164 0.021722648 -0.09923405 -0.0010875762 0.38134634 -0.31307834 0.025561256 -0.22495405 0.0896971 0.24152091 0.5258564 0.43867582 -0.22321537 -0.2208478 -0.17723715 -0.1965462 -0.13847733 -0.1341295 0.12860224 0.22158486 0.5322088 0.48790726 -0.19248281 -0.21989258 -0.15806644 -0.08067766 0.26109615 0.5009149 0.42592084 0.4719866 0.050817452 0.41881797 0.09487897 0.013204407 0.006092824 0.49748477 0.092519335 0.067278564 0.07011453 -0.27159694 0.50965536 0.53536594 0.07120982 0.08272213 0.08336691 0.08604355 0.116231754 -0.13221581 0.08723186 0.07266835 0.44251412 0.04726785 -0.07318927 0.32634544 0.21052894 0.11799994 0.081387326 0.13287121 0.23266791 0.25688553 0.67437345 0.2592021 0.2677979 0.66241634 0.3603649 0.49767387 0.5066398 0.6517846 0.6779351 0.5450832 0.58215433 0.63100743 0.5572796 0.6160325 0.67315423 0.17414261 0.119500645 0.39488798 0.5455338 0.6342199 0.66889346 0.20163696 0.19768593 0.16766988 0.117268786 0.18471271 0.39918053 0.6101483 0.63622427 0.19817066 0.19401422 0.18433273 0.12556879 0.00475955 0.664348 0.47030234 0.22386637 -0.007026408 0.022951808 0.0689423 0.12152881 0.14884768 0.6556354 0.6596871 -0.08375917 0.6762794 0.012078837 0.69663 -0.02012454 0.65717125 0.21286291 0.48799846 0.15798329 -0.25822264 -0.15843995 0.36262923 -0.091907546 -0.13310295 0.1731931 0.36127433 0.41767406 0.4265601 0.2752637 0.288703 0.29588592 0.26911497 0.19571252 -0.17608908 0.38755575 0.44368607 0.41728872 0.2549198 0.2701733 0.21249521 0.36479986 0.107371904 0.3319141 0.20450558 0.22243711 0.1596924 0.019072507 0.058099907 0.052037828 0.200838 0.15600124 0.1759178 -0.02322787 0.0843283 0.03526534 0.17878482 0.41008985 0.5541185 0.6910093 0.63151884 0.50376046 0.35013273 0.11950844 0.16183726 -0.05834108 0.00033264607 0.49973154 0.5640679 0.61159384 0.7752916 0.8531758 0.6067982 0.52285135 0.21165702 -0.10061862 0.51219684 0.910514 0.92046547 0.6830282 0.6273799 0.22913688 0.9434891 0.92018 0.6702856 -0.057608522 -0.0053009875 0.012831824 0.036294542 -0.020982772 0.4413031 0.60415757 0.77646905 0.9234909 0.93726563 0.5776391 0.55736953 0.05656704 -0.103977434 0.71072936 0.8387593 0.6687895 0.51232696 0.04320237 0.6299284 0.10708313 0.5647358 0.044392057 0.29427943 0.22700503 0.0086273365 0.18739198 0.10728042 0.044584982 0.17657927 -0.031840615 -0.32301074 -0.115334556 0.24971926 0.3443 0.3065748 -0.36960685 -0.1452605 -0.24384177 0.35277343 0.37819853 -0.20205711 0.38881165 0.41203085 0.41119754 0.20255648 0.2705971 0.2710747 0.36642084 0.36600566 0.36918885 0.25599808 0.21685737 -0.2454625 0.35610262 0.3578673 0.29153875 0.14366445 -0.053293098 -0.15017608 0.20878857 0.26109168 0.116881005 0.10139246 0.031878117 -0.12131258 0.26419717 0.03171736 0.57695484 0.35461786 0.31675363 0.07930086 0.38161743 0.49942946 0.441836 0.62308276 0.6271191 0.5631707 0.61294174 0.6506495 0.65026957 0.28583947 0.60404027 0.59820783 0.630561 0.6638055 0.2820111 0.2592684 0.408817 0.450862 0.5277966 0.6129626 0.6779163 0.25159293 0.29463866 0.42598194 0.5307853 0.6168868 0.14632422 0.16288044 0.20713031 0.2662806 0.40696356 0.535218 0.62424266 0.68737626 0.10385364 0.17502159 0.17153654 0.11426653 0.07307145 0.119272016 0.13177939 0.6839686 0.6852261 0.38457468 0.3510786 0.25323442 0.61950296 0.6554586 0.41706234 0.29750562 -0.028684527 0.14127755 0.4531349 0.1876545 0.4714581 0.54331714 0.18053418 0.49557027 0.09599262 0.58324844 -0.10243335 -0.09739074 -0.4194489 -0.17612942 0.063602805 -0.04969577 -0.04062905 -0.5736926 -0.3684852 0.29358804 0.27734047 -0.42193842 0.3333888 0.31779388 0.29209322 -0.22168922 0.2650047 -0.4630556 0.06372578 0.017201778 0.038364694 0.23329738 -0.21068889 -0.33157277 -0.06864109 0.11258012 0.076255076 0.037670724 0.026050273 0.10223091 -0.16775551 -0.30715784 -0.06543458 0.10410954 0.12881316 0.03414184 0.04273179 -0.27387363 -0.30263034 0.047679223 0.05547814 0.07841341 0.060362905 0.0839183 0.1894105 0.41714698 0.5633491 0.69554687 0.69150233 -0.27672237 -0.0742503 0.03220401 0.03449692 0.007093817 0.8572459 0.7173251 0.6768474 -0.0028443767 -0.22494471 -0.08560084 -0.061877444 -0.10704417 0.87099516 0.88222545 0.7212066 -0.32992008 -0.36622483 -0.24289891 0.89112157 0.6927641 -0.28170013 -0.13980787 0.24716124 0.32573277 0.508042 0.8858923 -0.08758993 -0.044570625 -0.2443242 -0.06254297 0.38407838 0.49236083 0.702926 0.7889916 0.803847 0.07291037 0.046397783 0.38235933 0.06698928 0.4099086 0.3980521 0.05905803 0.06200706 -0.0056877406 0.11615187 -0.20212327 0.24625486 0.4015925 0.43112278 0.20193417 0.49749476 0.23783886 0.42435977 0.49918705 0.2603469 0.27796477 0.1314121 0.21444756 0.2745821 0.19097432 0.17904197 0.4067064 0.21806288 0.43567964 0.2416474 0.41367108 -0.07347273 -0.20935932 -0.13834773 0.358544 0.3324661 0.30704713 0.015532058 -0.002559334 -0.026502796 -0.29411012 0.5937276 0.4034468 0.40993375 0.44328266 0.17111866 0.06468986 0.08722754 0.6357262 0.6391531 0.5259785 0.5362369 0.50508845 0.5101666 0.65749633 0.6426016 0.59563595 0.5701318 0.3312347 0.31555226 0.6024684 0.6071573 0.6616467 0.6845064 0.6722088 0.32224274 0.30964231 0.28862774 0.1961459 0.24228798 0.32045585 0.6136807 0.38133055 0.44500828 0.56884146 0.5957572 0.03604666 0.12352267 0.19018935 0.257879 0.39942926 0.5358283 0.61830133 0.65512884 0.1591827 0.20447427 0.6817626 0.68772113 0.4181462 0.33549285 0.27007425 0.13002254 0.68446946 0.49850845 0.39672267 0.6242075 0.46994162 0.5050391 0.3977418 0.19603795 0.33728355 0.20873469 0.44361833 0.35575712 0.