# vtk DataFile Version 2.0
Really cool data
ASCII
DATASET POLYDATA
POINTS 3258 float
23.165226 15.131686 -11.247221
23.180576 15.218531 -10.648946
23.104998 15.848215 -12.033331
22.826818 15.690795 -11.345144
22.88305 15.673032 -10.626051
23.17457 15.67908 -10.118044
23.024342 16.411879 -12.073363
22.70087 16.415241 -11.339323
22.746723 16.378391 -10.618377
23.030163 16.446299 -10.135757
23.170338 16.962948 -12.13781
23.0068 17.24006 -11.403565
23.068739 17.305714 -10.65096
23.251472 17.031696 -10.051875
23.289879 17.724703 -11.252807
23.234041 17.713823 -10.693336
23.572832 14.942681 -11.4546795
23.76084 14.830493 -10.411446
23.979187 14.914822 -9.925485
24.151861 15.886476 -12.819
23.512718 15.752858 -12.404406
23.638502 15.751992 -9.616688
24.138765 15.699647 -9.192263
23.815287 16.599861 -12.80251
23.538294 16.534231 -9.669776
24.155134 16.090406 -9.127969
24.006573 17.084059 -12.764875
23.606152 17.156698 -12.445005
23.347668 17.5751 -11.754951
23.61473 17.43962 -9.991289
23.790161 17.8682 -11.897062
23.656078 17.983103 -11.195802
23.684875 17.98129 -10.700472
23.988014 17.801712 -10.001702
24.6435 14.304119 -11.309687
24.696604 14.17496 -10.549686
24.821516 14.28979 -9.973709
24.714437 14.683203 -12.087673
24.368204 14.485366 -11.490054
24.448936 14.444356 -10.200289
24.766087 14.709914 -9.497371
24.889778 15.030925 -9.07223
24.550945 15.71738 -12.823853
24.75746 15.635229 -8.848471
24.368273 16.345842 -13.085057
24.804531 16.272297 -8.880003
24.810064 17.453327 -12.791266
24.791765 17.218592 -9.293478
24.447176 18.263851 -11.320614
24.511644 18.19807 -10.573801
24.580679 17.944086 -10.021719
25.437231 20.82408 -17.29428
25.423893 21.31961 -17.413708
25.309195 21.896944 -16.111748
25.338007 21.98986 -15.566942
25.452597 22.743593 -17.043198
25.386806 22.761703 -16.490696
25.280495 22.283792 -15.566326
25.38811 22.348265 -15.09482
25.440182 23.2084 -16.498123
25.404793 23.09732 -15.557209
25.766417 14.358385 -12.045236
25.302523 14.080888 -11.395101
25.430895 13.961806 -10.722705
25.538864 14.23823 -9.867844
25.653042 14.625617 -12.390095
25.550386 14.510489 -9.47728
25.475292 14.900426 -9.100061
25.327253 15.76746 -13.321422
25.380457 15.619735 -8.71774
26.119802 16.558361 -13.822121
25.548002 16.222193 -8.729423
25.553904 17.488464 -9.52969
25.75603 17.03733 -9.046246
25.655167 18.30738 -11.392503
25.371103 18.255037 -10.433294
26.055067 18.098358 -9.85249
26.011658 19.876873 -17.88273
25.771084 19.993824 -17.24782
25.858416 19.90812 -16.830618
26.014977 20.901762 -18.728804
25.887526 20.652817 -18.348036
25.575903 20.569906 -17.470428
25.556023 20.686531 -16.625866
26.184847 21.324308 -18.86569
25.857378 21.391659 -18.324203
25.59039 21.530857 -17.552813
25.69248 21.633472 -15.034934
26.200785 22.020977 -18.702187
26.037891 22.204681 -18.292492
25.60066 22.40317 -17.455278
25.852425 22.628555 -14.689924
26.119228 23.265242 -17.737762
25.753565 23.327755 -17.166239
25.617516 23.503786 -16.650644
25.537052 23.332153 -15.523224
25.984144 23.38086 -14.906073
26.104963 23.89861 -16.990711
25.879614 23.924603 -16.401148
26.053797 23.961412 -15.579132
26.14139 23.789814 -15.115422
26.34013 14.109967 -11.37554
26.156631 14.657583 -9.401816
26.139084 14.8582535 -9.206288
26.852823 16.362692 -14.225112
26.476175 16.356745 -8.929176
26.611174 17.290813 -9.199489
26.740345 19.262857 -17.959885
26.76023 19.214638 -17.405058
26.341988 18.405159 -12.562983
26.241714 18.254326 -10.147512
26.626684 19.62136 -18.22266
26.481827 19.560032 -16.501753
27.311821 19.650965 -15.557014
27.04528 18.914091 -12.477607
26.597525 18.607119 -11.383325
26.75235 18.57654 -10.7585945
26.754625 20.600225 -19.067469
26.328861 20.234884 -18.634815
26.626665 20.36325 -15.463184
26.732805 20.607346 -15.085628
26.660656 21.386608 -19.125175
26.25055 21.722233 -14.582486
26.53271 22.094452 -18.844864
26.305605 22.27106 -18.63926
26.486635 22.434908 -14.316975
26.645197 23.121185 -18.125807
26.434637 23.62605 -17.650158
26.416775 23.459217 -14.637489
26.701103 23.110722 -14.314891
26.516045 23.903177 -17.433594
26.346094 24.200869 -16.56523
26.517073 24.194431 -15.694799
26.612148 23.956179 -14.96698
28.433815 11.941281 -17.273766
28.464186 11.908527 -16.952925
28.404644 12.309474 -17.504522
28.460827 12.234409 -16.863953
28.35454 13.606312 -15.575856
28.358086 13.138963 -14.751252
27.912706 14.143418 -13.13893
27.663576 14.737009 -14.120033
27.460976 14.407885 -13.395392
27.593948 14.638159 -10.397429
27.116707 14.454468 -10.193257
27.381142 16.288517 -9.073954
27.646904 17.777555 -14.857563
27.443785 17.310446 -9.400968
27.793444 19.082876 -18.17759
27.396208 19.155872 -17.533463
27.601276 18.157553 -14.506046
27.63682 18.515766 -10.803534
27.3623 18.154715 -10.00838
27.482346 19.886557 -18.867401
27.786592 19.450857 -13.534207
27.534859 19.322298 -12.737955
27.607548 18.856083 -11.3387165
27.229435 18.602236 -10.921087
27.724386 20.139845 -14.636129
27.407715 21.286215 -19.360435
27.315195 22.612333 -14.228113
28.088348 23.100485 -19.361235
27.336842 23.585318 -18.329082
27.522175 22.989065 -14.211965
27.515862 24.314144 -16.613264
27.277657 24.338135 -15.658463
27.402279 24.076942 -14.86551
29.471395 9.468775 -13.522931
29.139986 11.136923 -17.876362
28.917543 11.180017 -17.525562
29.086994 11.107326 -16.798512
29.340796 10.595824 -14.428031
29.182571 10.735899 -13.368447
29.13432 10.911205 -12.764295
29.149683 11.991791 -18.832085
28.81389 11.712611 -18.120811
28.612434 11.634062 -17.43904
28.580439 11.910797 -16.425797
28.854351 11.946438 -15.810225
28.954025 11.734302 -14.524306
28.86553 11.557795 -13.510822
28.567234 12.241955 -18.041653
28.55163 12.8069315 -16.45652
28.622776 12.657261 -15.643383
28.648994 12.56083 -14.562862
28.883793 12.544521 -12.523977
29.290337 12.5387125 -11.135652
29.416481 13.630612 -21.380585
29.281763 13.441601 -19.158909
28.696207 13.323162 -17.38039
28.559706 13.313869 -16.958153
28.538511 13.509578 -12.965001
28.775599 13.8732815 -11.591584
29.274952 14.940264 -23.166218
29.213877 14.554176 -22.49762
29.082455 14.698632 -21.539124
29.178516 14.121039 -20.698229
29.362041 14.372034 -19.687767
29.338455 13.967479 -17.958616
29.026964 14.668327 -16.189331
29.2025 15.647887 -23.247135
28.973991 15.50946 -22.528515
29.021185 15.15891 -21.427128
29.301441 15.343339 -20.422846
29.199715 14.896345 -17.04892
29.112646 15.60238 -15.831228
27.898098 15.509723 -9.519733
29.204098 16.072227 -23.112526
29.094711 16.136757 -22.235147
29.210402 16.020378 -21.46002
28.645672 16.611774 -10.010575
27.933582 16.281282 -9.345605
29.2326 17.884872 -16.76864
28.704123 18.47343 -10.785297
28.109219 18.88258 -11.402281
28.429096 18.717905 -11.001902
29.043066 20.848286 -19.677011
28.718626 20.606525 -19.367184
28.509485 21.49571 -19.551601
28.402338 21.449434 -19.45951
28.426472 22.573454 -19.798054
29.173332 23.22911 -20.742445
28.879734 23.532763 -20.268305
28.561565 23.592628 -19.668873
29.024683 23.999529 -20.304296
28.52704 24.42015 -17.542934
28.869322 24.361326 -16.236012
28.255852 23.970152 -14.985479
29.143627 25.068623 -19.512697
29.169792 25.448874 -18.470367
29.42509 26.130127 -19.159018
29.358974 26.074099 -18.52678
30.23919 8.350917 -14.146614
30.090567 8.308168 -13.502466
30.133978 9.123854 -14.76739
29.928785 8.680562 -14.122837
29.717361 8.846206 -13.598206
29.980463 8.654348 -12.976401
30.153069 10.334476 -16.141966
30.25775 10.012509 -15.373283
29.658495 9.460457 -14.085942
29.551485 9.410011 -13.546285
29.590933 9.416615 -13.027888
29.860582 10.103937 -12.258077
29.680433 11.210103 -18.54728
29.736465 10.678688 -17.334007
29.672142 10.697685 -16.763298
29.653059 10.162449 -14.50924
29.572311 10.258786 -12.658958
29.726662 10.790307 -11.941681
30.11733 11.215482 -11.214293
29.748947 11.764874 -19.122793
29.868525 13.016946 -22.147366
29.949661 12.90579 -21.616278
29.830204 12.832579 -20.684282
29.721863 12.735414 -10.562894
29.791769 14.119941 -23.158712
29.646088 13.561742 -22.518702
29.577711 13.362013 -21.78496
29.429909 13.300594 -10.713588
30.14552 13.226312 -10.243529
30.274742 14.614509 -23.91543
29.507967 14.677366 -23.22659
29.733553 14.457692 -18.309818
29.329063 14.833115 -10.680215
29.667225 14.299626 -10.311638
29.732477 15.414787 -23.81401
29.420897 15.595026 -23.48514
29.742472 14.945895 -19.53384
30.123697 14.742432 -18.345335
30.160032 16.120832 -24.078878
29.646437 16.25563 -23.505558
29.705433 16.325964 -20.60424
30.083782 16.075548 -19.889526
29.514982 16.573973 -16.152431
29.705612 16.845905 -22.997852
29.593805 17.013657 -21.59925
30.258787 17.604387 -20.615757
30.30543 17.563478 -18.519835
29.864697 18.510017 -18.838455
29.322546 18.492968 -17.71369
29.295725 17.93723 -10.542767
30.389437 19.36039 -21.595642
30.048775 19.93603 -8.784469
29.97942 19.69616 -7.4254375
30.160324 19.694525 -6.6291323
30.271051 19.84882 -5.9425664
30.241812 20.575342 -21.585152
29.830458 20.379936 -8.251031
29.786688 20.37001 -7.6046515
30.100933 20.516907 -6.584866
30.353153 20.593231 -5.9611716
30.029726 21.350138 -20.938171
30.078718 21.512606 -13.596597
30.270018 21.311844 -12.661899
30.127718 21.137392 -8.192291
30.063505 21.207863 -7.642071
30.190598 21.135351 -6.8307443
29.787506 22.604383 -20.890474
29.690783 22.251402 -14.565974
30.24146 23.651203 -21.684034
29.605576 23.39231 -21.032833
30.329788 22.907415 -12.093885
30.407303 23.053175 -11.977016
30.235868 24.84505 -21.663616
29.699856 24.478355 -21.060791
29.444101 24.292194 -15.720404
29.74725 23.87867 -15.029171
30.24755 24.988485 -21.644878
30.047506 25.34369 -21.14793
29.525558 25.176052 -20.469591
29.50449 25.328297 -19.679918
29.618448 24.868662 -16.743782
30.200665 25.937403 -20.838749
29.93517 26.043976 -20.210257
29.90259 26.56443 -19.4061
29.613962 26.475437 -18.644678
29.79771 26.484507 -17.84413
29.980715 26.878035 -19.027782
30.154068 27.022005 -18.436052
30.2995 27.0899 -18.060171
30.687672 8.086981 -14.11607
30.753523 7.9609222 -13.397747
30.532862 8.226391 -12.895649
30.876867 8.573891 -14.950482
30.409145 8.495292 -14.5125475
[...]
POINT_DATA 3258
SCALARS features_00 float 1
LOOKUP_TABLE default
0.860242 0.83954895 0.8952254 0.9477117 0.8992098 0.8447094 0.87797606 0.950534 0.92659914 0.8776772 0.8402742 0.86177313 0.85050106 0.84357285 0.8139131 0.81076276 0.8030917 0.75836354 0.74467313 0.68255866 0.806986 0.7969632 0.762878 0.7452792 0.82028335 0.77007675 0.737332 0.79741 0.8177306 0.7927555 0.76762646 0.7654829 0.75879216 0.7306385 0.6525649 0.6809402 0.6883312 0.6408029 0.6738422 0.70548 0.7082877 0.7204037 0.6301419 0.7426888 0.64090186 0.7438118 0.6474493 0.69892204 0.6523085 0.6344385 0.6418644 0.6105144 0.5799107 0.6523172 0.7008555 0.57416326 0.6433357 0.71583265 0.7383001 0.6543995 0.7327328 0.5210264 0.6083226 0.64117056 0.6541738 0.4973101 0.66937184 0.6980928 0.48022783 0.72967386 0.29870677 0.7238302 0.5815407 0.64811975 0.3875506 0.49039915 0.46375048 0.6554516 0.65261674 0.64847934 0.579893 0.612105 0.62710565 0.61919045 0.5331079 0.5560604 0.56341875 0.692775 0.47209108 0.48780337 0.5338799 0.734764 0.4922897 0.5632529 0.6400216 0.73452175 0.73796153 0.59668696 0.67320013 0.72449434 0.7316438 0.583652 0.63696015 0.6554986 0.066574015 0.66760933 0.5742604 0.61779535 0.60598505 0.24396886 0.41417488 0.63662624 0.62401414 0.3457343 0.16700739 0.28295112 0.31820828 0.5533249 0.6280525 0.44269818 0.41936755 0.4784349 0.67601275 0.42535767 0.4415529 0.7050836 0.41134024 0.49416625 0.72057056 0.7055234 0.5260059 0.6450436 0.69664866 0.7048869 0.39214963 0.3682868 0.40114766 0.35763466 0.20059536 0.043007504 -0.046690032 0.0066928416 -0.041192144 0.44969964 0.5924785 0.59961367 0.084207945 0.5239805 0.4091741 0.49689305 0.18004985 0.271928 0.3350374 0.55535424 0.075497985 0.15271854 0.24475943 0.28444105 0.13551944 0.4039956 0.64167607 0.20141742 0.34200954 0.6346384 0.53507304 0.60176575 0.6233087 0.46170655 0.40272513 0.4000932 0.33965358 0.25030884 0.33066964 0.34540468 0.40796012 0.44054103 0.40522337 0.31131124 0.21622315 0.10668115 0.18424405 0.44461685 0.31194162 0.201688 0.04967101 0.22002247 0.28207782 0.39961004 0.2810058 0.33844942 0.32434115 0.058568954 0.24405037 0.4827881 0.49857402 0.5009798 0.38275442 0.11604782 0.17644963 0.11061833 0.49845588 0.54211044 0.48238254 0.23711565 0.056323044 -0.15898591 0.51023024 0.49957797 0.5229495 0.4321621 0.37561014 0.5442765 -0.36118022 0.2685054 0.23294052 0.25291705 0.13096818 0.2726745 0.2196932 0.24719371 0.18060951 0.22516355 0.23879045 0.20597953 0.2990765 0.2541216 0.1589037 0.40686056 0.3499338 0.2802348 0.3579605 0.31914914 0.54765916 0.57327795 0.4126643 0.5179823 0.52647185 0.5533213 0.13286531 0.21034026 0.43461573 0.46988666 0.4851616 0.40640184 0.33303672 0.30417717 0.26765686 0.30892542 0.4145788 0.33518645 0.27067357 0.26392817 0.30563653 0.2688583 0.23410678 0.21977457 0.4076647 0.38400254 0.36859632 0.22220324 0.17209347 0.38966894 0.45638674 0.03110303 0.06381966 0.13172944 0.45256793 0.47918302 -0.007936165 -0.07351857 0.41055074 0.45457578 0.17709677 -0.029810365 -0.20574535 0.44376263 0.36074096 0.023087766 -0.34492558 -0.28966847 -0.29785094 0.254344 0.061894998 0.57392734 0.6564026 0.6223043 0.5625479 0.07365861 0.5564673 0.5738332 0.54823357 0.5109422 -0.09285455 -0.034931697 0.062389743 0.4702426 0.49038523 0.50273186 0.1370322 -0.046541646 0.3302884 0.27973977 0.19963713 0.20857511 0.3912124 0.37164295 0.0016003326 -0.03684921 0.3949496 0.39805216 0.3841782 0.37114805 -0.013167815 0.39759767 0.38644755 0.3716997 0.34850526 0.29236132 0.37214416 0.3772915 0.3731656 0.55641377 0.56840676 0.56261647 0.43404984 0.50738746 0.53809834 0.41129732 0.10401793 0.3497656 0.26419657 0.205908 0.2821002 0.27972448 0.23815387 0.017694427 0.06938722 0.23677143 0.19377267 0.24179083 0.18749541 0.3037126 0.31352147 0.118434116 0.365251 0.37634796 0.017728262 0.35456556 -0.26781094 0.26143765 -0.30856165 -0.299786 -0.23650166 0.1012065 0.35733533 0.44681245 0.55617225 0.5626753 0.21336995 0.1875736 0.06822724 0.06823905 0.56005836 0.43460262 0.33562607 0.21823654 0.4643702 0.39241314 0.32887545 0.22030964 0.18643141 0.16209622 0.33697647 0.43745625 0.45065123 0.44894016 0.40785727 0.16544709 0.31307057 0.3722394 0.40811804 0.35763675 0.21174082 0.2054718 0.37588716 -0.13775587 -0.103660874 -0.004375064 0.18870528 0.3843528 0.39752486 -0.11469514 0.40040088 0.39071256 0.24181336 0.38553602 0.39519182 0.39935088 0.38840127 0.34908968 0.43491876 0.4381373 0.4160213 0.3595112 0.4671536 0.5176562 0.44613802 0.50920737 0.5827674 0.5310787 0.50207543 0.09318581 0.37236637 0.59691024 0.51371306 0.4957985 0.4461429 0.29472378 0.19925037 0.057952594 0.07029535 0.25209543 0.22000173 0.4624287 0.4378663 0.3498699 0.095204376 -0.13367051 -0.06504887 0.19669878 0.113552526 0.11193112 0.015187107 0.1690856 0.55140245 0.5561869 0.5789139 0.21117386 0.024919897 0.17367564 0.5341698 0.5339142 0.54363465 0.17740361 0.49421215 0.5124899 0.05334969 0.15300097 -0.49729478 0.36730784 0.12725742 0.25572947 0.4542551 0.49422073 0.27208152 0.19452727 0.19660719 0.2834271 0.24053854 0.22991228 0.21927074 0.32668918 0.3136299 0.23949608 0.38778597 0.37080285 0.35584933 0.204153 0.1698136 0.08277133 0.1845348 0.34461755 0.3928848 0.40614212 0.31135744 0.13735285 0.100619145 0.343771 0.38161296 0.013928276 0.15285972 0.28816938 -0.0520495 -0.0081526525 0.33449793 0.03535577 -0.03352837 0.35928044 0.38026536 0.40661904 0.33663225 0.27724293 0.43574223 0.45836627 0.4313508 0.40256086 0.2869708 0.4776544 0.4695027 0.57481295 0.61657274 0.5231428 0.60345817 0.6551354 0.55532324 0.553605 0.22262684 0.23650843 0.22576934 0.19857317 0.19553526 0.12721404 0.35215792 0.5468071 0.6081329 0.65918064 0.5440557 0.5460465 0.5392753 0.37433475 0.09494257 0.16522875 0.13753712 0.10789509 0.5716326 0.6076181 0.5336778 0.5410505 -0.0732733 0.07695362 0.38999373 0.47825927 0.5034245 0.28003922 0.84111977 0.83074427 0.81736505 0.24863963 0.07070933 0.1543767 0.6404737 0.7565758 0.78859353 0.78591967 0.18128341 0.1743677 0.52608615 0.5783472 0.6495359 0.6519448 0.71815026 0.15182312 0.29147834 0.5019568 0.5432631 0.58024645 0.6053678 0.6072254 0.45088997 0.3233666 0.21465473 0.4492722 0.500415 0.5592329 0.55691487 0.4561152 0.37463573 0.15395644 0.43829417 0.45474446 0.46517268 0.5154064 0.52622145 0.43422288 0.31745297 0.02990281 0.2331485 0.19349974 0.33319563 0.3224758 0.4288563 -0.09981035 0.2233976 0.18113682 0.19842371 0.15299818 0.22850642 0.3701787 0.22289428 0.23812991 0.31895024 0.44757903 0.24561504 0.24839933 0.44706565 0.49679223 0.22877079 0.15017703 0.40711856 0.4311623 0.50529265 0.53731394 0.0632064 0.052026056 -0.01081726 0.24098453 0.33267474 0.36807135 0.38902617 0.0178298 -0.025672004 0.1427605 0.061538637 -0.003840983 -0.019869782 -0.03150714 0.3438074 0.36640692 0.15605412 0.4362928 0.314746 0.1878481 0.47628748 0.5036427 0.48745725 0.3537769 0.27759707 0.5956514 0.46286184 0.5570276 0.60364443 0.6239886 0.61656916 0.1727904 0.44844148 0.6493187 0.63732785 0.54980946 0.5641219 0.5682209 0.5162006 0.18877807 0.23871157 0.25713813 0.016159205 0.08291133 0.06890975 0.6583125 0.55353934 0.5461793 0.5532703 0.4087911 0.14467674 0.12987357 0.58004755 0.54888916 0.33636773 0.5146074 0.50798273 0.51935583 -0.0031149238 0.2767838 0.88814795 0.4285619 0.06629516 0.77047247 0.8963223 0.87237275 0.8436675 0.26280004 0.16845968 0.257943 0.68228495 0.79587376 0.78639877 0.31324667 0.29685092 0.510133 0.71133006 0.7088139 0.4905834 0.45682973 0.29869837 0.30260187 0.62006456 0.5268372 0.49964756 0.30805635 0.5653745 0.53831816 0.14806724 0.16286714 0.13958693 0.51378024 0.5276048 0.47314686 0.064758934 0.051147584 0.38655567 0.3188166 0.13100776 0.1590007 0.52006876 0.22074106 0.556514 0.57218033 0.12163139 0.56484926 0.58356714 0.12366753 0.2884337 0.32538503 0.3771838 0.5666969 0.15177259 0.058008276 0.32823887 0.41851783 0.2546568 -0.049744688 0.09057737 0.46529618 0.35944772 0.6165285 0.5858619 0.52816266 0.44104016 0.29443902 0.16564238 0.08019213 0.17912634 0.13282068 0.45496422 0.49242234 0.38441896 0.2885664 0.27653366 0.5485321 0.58779633 0.58587545 0.49804813 0.60319674 0.5842283 0.5855845 0.05873532 0.17199874 0.6053962 0.5437317 0.55836403 0.5714333 0.5266455 0.24042493 0.15763217 0.240896 0.25625932 0.15141925 -0.03848419 -0.100311205 0.57782376 0.5479487 0.54457766 0.5366883 0.55303013 0.51123786 0.90697217 0.895787 0.43290418 -0.011331707 0.20026669 0.7052516 0.75996125 0.8997179 0.878587 0.84626997 0.31823173 0.28223485 0.66922456 0.80844164 0.7708695 0.486731 0.44515672 0.19380134 0.43500158 0.6680762 0.5095639 0.48064345 0.313805 0.54390126 0.55163354 0.05691921 0.45953348 0.5856735 0.06459982 0.4787485 0.55955935 0.50050104 -0.07252483 -0.27394754 0.4068837 0.45186526 0.22965533 0.50037754 0.46788123 0.5589621 0.13466683 0.59418714 0.6140031 0.61095417 0.15718317 0.080474205 0.15948397 0.27903268 0.32775155 0.41021097 0.5161594 0.5850802 0.60785985 0.2952812 0.006626617 -0.005309753 0.41693735 0.6638452 0.5768291 0.06225386 0.056606654 0.7166823 0.6827066 0.6161079 0.5413747 0.08353761 -0.14749709 0.19354251 0.7086297 0.6440747 0.5660383 0.20721467 0.35720158 0.31384042 0.3331731 0.47155485 0.15260056 0.32729104 0.37689772 0.40507767 0.37013856 0.39546555 0.6374252 0.69947636 0.51793265 0.26067182 0.5326125 0.5339463 0.021832831 0.5131994 0.54594886 0.45521393 0.1254103 0.16955775 0.09943424 0.4834763 0.5327959 0.43162113 0.51174086 0.43535483 0.48228934 0.8825251 0.74678135 0.8677113 0.86777973 0.83924174 0.4469235 0.38398603 0.26429254 0.6378185 0.7934978 0.7534411 0.4809569 0.46718314 0.30263722 0.2656415 0.5399935 0.62111807 0.5040005 0.2960155 -0.12841855 0.48775056 0.5622147 0.4086797 0.5966662 0.5726599 -0.44610894 0.28704053 0.5205623 0.23977447 0.3686884 0.21011825 0.4572212 0.14155182 0.53131115 0.5045749 0.23755795 0.5931837 0.27137738 0.15853716 0.5799938 0.6085501 0.6105174 0.092784375 -0.197489 0.4255371 0.49025536 0.5832683 -0.19464059 -0.19418004 0.505859 -0.16462821 0.6859622 0.7389644 0.11321363 -0.10993147 -0.3949253 0.12518917 0.059171036 0.7553332 0.75096965 0.71231616 0.58734107 0.35557067 0.10857805 0.30759826 0.7022486 0.4134136 0.45975795 0.15731138 0.4273489 0.49605337 0.44982183 0.1229577 0.39056945 0.41538367 0.42406666 0.6631128 0.7657094 0.61534107 0.59091353 0.81167626 0.8287711 0.803382 0.75420415 0.82876575 0.83746 0.83814883 0.81498206 0.29030755 0.008359075 -0.0049452856 0.43672997 0.031390343 -0.118325084 -0.032887284 -0.07158408 -0.07056908 0.47367096 -0.07216212 0.07526348 -0.1005432 0.4218723 0.14508146 0.027305506 -0.098850384 0.3755254 0.18760678 0.130462 0.3595211 0.17177418 0.77133733 0.772115 0.84722865 0.84271777 0.5668253 0.7571559 0.7441628 0.4600701 0.4205913 0.35817122 0.00567656 0.54164517 0.49184722 0.4532559 -0.17022103 0.36272776 0.46621108 0.52442586 0.49714047 0.3494901 0.54926527 0.29814112 0.49922574 0.33859527 0.34805858 0.28515738 0.43345726 0.45251712 0.33014262 0.45134443 0.47907597 0.40448552 0.33431122 0.4017632 0.52744365 0.51575863 0.3340531 0.30561548 0.4240673 0.44099092 0.5437889 0.575117 0.3033005 -0.25629896 0.16198197 0.5514184 -0.2021016 0.11168132 0.27668643 0.67156494 0.6370591 -0.038596433 0.40737855 0.4941188 0.69433165 0.035591356 -0.5191226 -0.46644437 0.4555145 0.52417254 0.55841094 0.726892 0.733933 0.45477998 0.026280098 0.0926602 0.3090376 0.5260372 0.67998254 0.30147249 0.3440855 0.4032871 0.39713877 0.41121614 0.41366422 0.37960273 0.5749649 0.6709461 0.7547112 0.73687196 0.7928175 0.81934357 0.81935215 0.78415644 0.79448855 0.77601504 0.75599027 0.4010705 0.56344444 0.453134 0.34933203 0.16179802 0.04883924 0.439475 0.3892914 0.024674319 0.02144206 -0.00063721836 -0.048758734 0.05987826 0.5063685 0.52783746 0.56609607 0.33501503 0.26778585 -0.06627863 0.53582793 0.032341808 0.4140463 0.4810689 -0.19647662 -0.09414344 0.33500218 0.3996122 -0.008785956 0.45444822 0.40013045 0.11166398 0.10108993 0.41657043 0.2156918 0.07602297 0.33562446 0.077563226 0.37973842 -0.033855174 0.16157898 0.0774032 0.3623901 0.31030682 0.33563483 0.3789659 0.40255183 0.34086758 0.42394277 0.43230966 0.29947442 0.448085 0.43422386 -0.0053014234 0.14207831 0.26341787 0.13915709 0.23240945 0.33568043 0.5585063 0.54556006 0.5135613 0.62934554 0.6042909 -0.55997723 0.5639616 0.530671 0.703172 0.6677971 -0.12007524 -0.109198175 0.022187985 0.44053444 0.5107877 0.5454763 0.23376021 0.21554907 0.04100999 0.17078619 0.38064378 0.4765165 0.42513376 0.36833134 0.23972285 0.28513354 0.3120774 0.57512724 0.15788028 0.5865103 0.66750336 0.5171435 0.73508865 0.7297492 0.62293535 0.74007666 0.70041764 0.63134825 0.6478783 0.631094 0.5692313 0.62058973 0.59881186 0.48013994 0.33609188 0.28895056 0.29076475 0.62192714 0.10098026 0.09034961 0.22309892 0.22217965 0.55563915 0.5458142 0.1133318 0.49234015 0.5868924 0.5987115 0.35838136 0.5966206 0.5321603 0.18163362 0.5097948 0.3886375 -0.14676905 -0.15551664 -0.1884439 0.367629 0.00050108135 0.2334231 0.014255285 0.4927895 0.33208725 0.31033117 0.3441233 0.6088455 0.64752877 -0.13307965 0.5706873 0.5332365 0.44530946 -0.14105745 -0.21749938 0.37099132 -0.13091713 -0.18291138 -0.19974524 0.036027253 -0.010222893 0.31377083 0.39679125 0.15158483 0.43427408 0.21045345 0.39389318 0.34316766 0.24455896 0.16337378 0.29517603 0.19921462 0.18232591 0.2867378 0.3518247 0.45273596 0.25674194 0.4949264 0.52070946 0.4749965 0.14013612 0.4143955 0.48055416 0.5106311 0.5371946 0.4879533 0.45552784 0.35520864 0.011295848 0.04971572 -0.12329548 0.4215702 0.57247674 0.5741762 0.49245593 0.55042064 0.36541092 0.6831012 0.6797335 0.6414174 0.6027036 0.623451 0.49062815 0.37917814 0.62851846 0.6683553 0.72093606 0.70847374 0.640509 0.6236099 0.6690425 0.652464 0.6083756 0.43354797 0.41439778 0.4603029 0.5078918 0.6522911 0.66310024 0.38208976 0.4679395 0.4160281 0.49437106 0.6276293 0.4738101 0.491171 0.55853105 0.60015124 0.61026454 0.28435373 0.6195257 0.76557124 0.7499671 0.10690291 0.11466016 0.7328321 0.74229646 0.6114297 0.2624318 0.53057003 0.2817095 0.32712185 0.118060105 0.46204656 0.56335163 0.7070586 0.40082845 0.72733545 0.72355294 0.6759802 0.6177366 -0.24573018 0.5259628 0.55903774 -0.2850033 0.39961118 -0.34323376 0.11007701 -0.22375317 -0.038131583 -0.04068234 0.1918714 0.057412844 0.18972015 0.38288608 0.37157655 0.40506518 0.33918673 0.39604294 0.26824167 0.41357112 0.45108312 0.19446272 0.48458552 0.111627944 0.24992958 0.43359554 0.50386417 0.1826163 -0.12944885 0.3979289 0.41942072 0.54719645 0.4641279 0.42763627 0.5863023 0.57506394 0.44903132 0.59668034 0.5771215 0.54880005 0.22382608 0.14640003 0.42554295 0.49345934 0.5260874 0.4789819 0.41017967 0.24805145 0.42758453 0.6380342 0.29904744 0.30201808 0.36313176 0.39117217 0.6706739 0.696155 0.65243775 0.44282746 0.48019987 0.46357355 0.6557913 0.70815337 0.6901693 0.67035776 0.66643196 0.6479752 0.57198894 0.5887715 0.5825508 0.56234974 0.6612863 0.66969293 0.54961944 0.5473725 0.5436138 0.433405 0.53813434 0.3638936 0.49008524 0.3146245 0.106291786 0.27330157 0.4000051 0.78668386 0.78831494 0.76194584 0.6985748 0.29972067 0.37770325 0.73463047 0.76708245 0.5994481 0.45108068 0.1888654 0.24701542 0.6625556 0.17100386 0.19122455 0.5833061 0.4966511 0.22396263 0.49324965 0.4615534 0.13536213 0.4537261 0.50154644 0.69494736 0.7574935 0.7740676 0.78050256 0.72432053 -0.25585285 0.59745634 -0.4756478 0.37546605 0.45057297 -0.4619912 -0.47754887 0.14598238 0.2933215 -0.2887686 0.01694303 0.32049876 -0.08281039 0.10158816 0.22081743 0.18073669 0.116538584 0.48833406 0.183851 0.10518204 0.51216954 0.5074048 0.12551042 0.49990806 -0.3985204 0.26660028 -0.03979694 0.43771565 0.2798451 0.36375803 0.33992466 0.5906565 0.5833231 -0.023295153 0.24495861 0.33473724 0.5802765 0.57526004 0.46243244 0.011266194 -0.1692818 -0.08995441 0.14988951 -0.05312182 0.47194862 0.23366356 0.60382867 0.43289304 0.48283863 0.45967698 0.4432305 0.44359934 0.5871316 0.646183 0.64476216 0.61997193 0.48230278 0.48117435 0.65046823 0.6335384 0.5123709 0.57796526 0.5991297 0.606274 0.5953342 0.6169355 0.5755993 0.5352258 0.5985372 0.57221 0.5683607 0.53161985 0.4271201 0.06392124 0.19910204 0.78384876 0.783352 0.75136197 0.6429639 0.57433724 0.134862 0.1690381 0.7249287 0.7447692 0.34317935 -0.023341268 0.06508909 0.13249427 0.6620413 0.108493924 0.54461014 0.089349404 0.48936456 0.46107456 0.029557083 0.08337203 0.48229998 0.5434554 0.65767133 0.73451746 0.38577658 -0.0809184 0.40203202 0.453362 0.55352867 0.63682806 0.73755205 0.77141404 0.32611528 0.11978109 -0.1935068 0.72391135 0.76349044 0.09478945 0.52711326 0.66403294 -0.5958494 0.3957314 -0.34752357 -0.59532034 0.25670445 0.23892173 0.47438028 0.39364108 0.15507367 0.5821185 0.49155188 0.053475864 0.5829041 0.25509268 0.59871435 0.5281849 0.28824854 0.30819952 0.37637594 0.007931892 -0.04005306 0.43719494 -0.07639906 0.48585007 -0.39612916 0.27174067 -0.11061345 0.00790824 0.23321533 0.1582394 0.54369736 0.1653248 0.5673191 0.54985666 -0.20610774 -0.2893593 0.5592174 0.5300735 0.23029336 0.10540168 0.32511705 0.21421707 0.1681439 0.36826605 0.34022003 0.22615537 0.44715145 0.5331527 0.5410664 0.41966105 0.45850834 0.448887 0.41444096 0.5497507 0.4744292 0.4692891 0.42307875 0.5010411 0.55144197 0.5685983 0.5049231 0.43261752 0.41350174 0.48754236 0.5101605 0.57612026 0.5950803 0.58649755 0.47264326 0.38352486 0.2465409 0.53609097 0.5391704 0.3528287 0.23266685 0.10115023 0.35971642 0.42291266 0.14882845 -0.101579905 0.15580335 0.72429585 0.6334921 0.5970801 0.5338786 -0.004901916 0.69703496 0.64135575 -0.11044895 0.09450727 0.6155817 0.5976995 -0.3741223 0.06604825 0.5265956 0.50764346 0.055242937 0.48613822 0.46943268 0.007939406 0.45004195 -0.119803675 -0.0895147 0.47734153 0.50375175 0.6396962 0.7162031 0.356293 -0.20759207 -0.21063219 0.4080082 0.46387655 0.4971838 0.63264763 0.6956084 0.13455696 -0.34769636 -0.042515412 0.49812132 0.3436641 0.27212667 0.31845507 0.5707621 0.23409101 -0.025472246 0.2057 0.21360803 0.67283535 0.6422204 -0.36926073 0.66768473 -0.07399715 0.06128719 0.6264639 0.114663646 0.5818422 0.4831794 0.24970153 0.30696273 0.13791484 -0.10980878 -0.10445437 0.35015997 0.38222665 -0.21962464 0.40012133 0.45080057 0.11815585 0.46785927 -0.17893732 0.34064382 0.2081097 0.013005466 0.10243458 0.46139914 0.30801827 0.07635668 0.37775388 0.25414908 0.3010544 0.10528151 0.19186546 0.22150946 0.1674094 0.31115308 0.3346296 0.22306022 -0.046246693 0.045928527 0.39774814 0.4059883 0.40060574 0.28628814 0.360429 0.44044125 0.49278706 0.52590597 0.32408178 0.4088245 0.4630825 0.5065963 0.526577 0.4415344 0.3950925 0.40965483 0.32839775 -0.005681265 0.19655576 0.20163873 0.3099537 0.54068536 0.5175933 0.51296633 0.09492353 -0.22005746 -0.08576448 0.076483846 0.56109536 0.51089627 0.49735916 0.47855687 0.47269517 -0.18084705 0.22432408 0.15235497 0.5060384 0.44248545 -0.17597368 0.14139493 0.44096553 0.38548034 0.40058273 0.38747603 0.037929993 0.40871042 -0.07821758 0.33656293 -0.22241265 -0.23496859 -0.24817136 0.46932152 0.2640851 -0.0048651695 0.6785168 0.6191113 -0.36170837 0.71434176 -0.61049277 0.7032118 -0.13959293 0.6479331 0.59949386 0.5524944 7.5399876e-06 0.4416223 0.22474453 -0.38979375 0.008973435 -0.30842903 -0.5035024 0.1169274 -0.19760343 0.16868801 0.4249207 0.04218761 0.5562692 0.35221863 0.44824708 0.4581346 0.5179505 0.08500897 0.24935178 0.37197164 0.44092357 0.06367552 0.18322313 0.342362 0.21645056 -0.00074633956 -0.044042096 -0.13764891 0.16694202 0.22957373 0.007951438 0.2548517 0.28030166 0.146337 0.10671244 0.3057372 0.3173204 -0.033752948 0.071179986 0.07832125 0.34595245 0.3369813 0.15338723 0.39409614 0.57313913 0.50665957 0.5164797 0.53252876 0.4203565 0.23923959 0.26207858 0.24762934 0.46114337 0.44452968 0.11220652 -0.014471713 0.052670076 0.21998572 0.30025482 0.2724313 0.26311743 0.40099043 0.38262025 -0.34482074 -0.2141785 0.29460222 0.23848093 0.3215691 0.31612954 -0.05050056 0.15677862 0.35971433 0.37713552 0.28333813 -0.055844296 0.21137841 -0.11586295 0.2067513 -0.19797164 -0.15998389 0.44080257 0.31202716 0.040047936 0.30907106 0.66825145 0.5979775 -0.052032605 0.699437 0.6563