# vtk DataFile Version 2.0
Really cool data
ASCII
DATASET POLYDATA
POINTS 7569 float
21.413805 13.807937 8.906562
21.414858 13.803975 9.226271
21.40542 14.175507 8.806435
21.410015 14.248831 9.20537
22.220943 13.239201 8.12026
21.889769 13.210855 8.711928
21.8955 13.15945 9.305825
22.060255 13.273122 9.875766
21.976982 13.746078 7.9890513
21.653614 13.578457 8.58131
21.579504 13.594495 9.512096
21.85561 13.707233 10.013186
21.956217 14.381965 7.871221
21.593918 14.46112 8.535937
21.526922 14.39988 9.499623
21.715921 14.466047 9.895096
22.182089 15.022696 7.8119273
21.918068 15.130817 8.59301
21.923256 15.133137 9.393253
21.973576 14.986885 9.872068
22.413612 22.847286 6.7818184
22.332022 22.813704 7.5508294
22.343155 22.803171 8.493133
22.455679 23.61168 6.1634927
22.380484 23.60959 6.5844946
22.2545 23.438784 7.6349993
22.257322 23.375486 8.512045
22.35873 23.59271 9.121641
22.373083 23.990816 6.780117
22.349218 24.036554 7.2893248
22.374619 24.106384 8.495362
22.413626 23.961401 9.2041235
22.322023 32.754707 9.6466055
22.249794 32.648422 10.462025
22.370806 32.685154 11.02509
22.281626 33.335747 9.608508
22.233973 33.41238 10.405965
22.302193 33.33946 10.959107
22.390047 34.067 9.815277
22.324776 33.906197 10.478123
22.505722 13.136527 8.106282
22.66222 12.837892 8.609728
22.296152 12.916072 9.2818365
22.934717 13.253605 10.458859
23.362555 12.830819 14.535012
23.409285 12.900631 15.119044
22.814407 13.895451 7.1944704
22.410408 13.564932 7.698136
22.494696 13.539627 10.396345
22.70865 13.883611 10.767088
23.018265 13.667239 13.81101
22.98484 13.800305 14.273568
23.245026 13.571019 15.043677
22.840895 14.517632 6.9949794
22.498951 14.55794 10.498818
22.595802 14.34381 10.699277
23.198542 14.846229 13.059667
22.881792 14.478054 13.743054
22.870224 14.473518 14.469397
23.070896 14.485374 14.979155
22.986597 15.224038 7.0554175
22.53832 15.248177 7.536834
22.396576 15.520933 8.130068
22.41598 15.546953 9.492706
22.598946 15.390258 10.12381
23.137732 15.23847 11.128807
23.028154 15.264982 13.808494
22.980633 15.141695 14.415125
23.19489 15.06537 14.925521
22.984652 15.752027 7.6754355
22.646564 15.763328 8.561998
23.030788 16.046722 9.707252
23.086266 15.872694 10.307257
23.256802 15.828774 10.868657
23.315985 15.732524 13.726185
23.412668 21.535912 4.964554
23.230255 21.69899 5.4412518
22.910015 21.936266 6.4948373
22.821098 21.91246 7.4463363
22.789782 21.811752 8.533507
23.080584 21.57812 9.339863
23.331028 21.83506 9.754534
23.267607 22.428215 4.87839
23.020508 22.369421 5.5392513
22.567265 22.816683 6.265139
22.459084 22.354698 7.3472505
22.520607 22.340147 8.592317
22.583735 22.669975 9.265273
22.715075 22.888762 9.729418
23.234821 23.193316 5.135418
22.668804 23.490068 5.9050183
22.473204 23.333189 6.301248
22.51036 23.321505 9.45495
22.903152 23.559622 9.862544
23.301908 23.822628 5.1560607
22.88977 24.289633 5.960998
22.642897 24.340296 6.4054933
22.523712 24.467579 7.4238734
22.541636 24.401735 8.407545
22.706097 24.19344 9.413499
23.058876 24.258812 9.771711
22.97243 24.788477 6.6395082
23.007233 24.856325 7.5450206
22.898752 24.71553 8.534098
23.052233 24.657686 9.243335
23.04363 32.046535 9.027707
22.787395 32.007324 9.642983
22.77194 31.943022 10.591665
22.982124 32.03748 11.252116
22.909874 32.62927 8.80949
22.490353 32.559128 9.385538
22.580523 32.458355 11.231552
22.788664 33.42326 8.880268
22.447 33.68638 9.443161
22.509222 33.474136 11.213089
23.246918 33.54258 12.104378
22.924097 34.191338 9.0967045
22.730953 34.367287 9.586056
22.657547 34.52369 10.289171
22.75865 34.00184 11.335787
23.081404 33.97098 11.787639
22.96308 34.706787 9.755168
23.052631 34.797348 10.1282425
23.309889 34.82228 11.21758
24.440742 5.8673906 10.249019
24.489685 6.3948035 10.00131
24.472 6.528662 10.500721
24.468401 7.258851 10.461302
23.940006 12.152467 13.936252
23.928474 12.047034 14.567421
23.979807 12.080253 15.143303
23.37669 12.819603 8.496543
23.631195 12.649405 9.375762
24.143627 13.354791 11.90877
23.756374 12.5783615 13.709981
23.568972 12.41776 14.819689
23.705437 12.628555 15.286516
24.116476 12.775679 15.821825
23.602648 13.793296 6.9608407
23.580383 13.49985 15.472514
23.975523 13.381602 15.785411
23.497374 14.616226 6.677752
23.775372 14.459909 15.501511
23.408827 15.26388 6.8421597
23.437817 15.528517 13.388179
23.630617 15.120258 15.28064
23.289871 15.660804 7.1918483
23.397587 15.839702 7.4240775
23.67747 16.369728 8.570532
23.932356 16.282036 10.9234495
23.808605 15.922182 13.101388
23.84004 16.06729 13.629903
23.700396 15.887047 14.402132
23.76949 15.731745 14.84951
24.00476 20.33857 9.156652
24.12798 20.961792 3.9094622
23.64451 21.02161 4.771419
23.690168 20.777124 5.3165903
23.757183 20.917536 6.6120152
23.93972 20.74124 7.429406
23.6892 20.557425 8.795198
23.53764 20.78269 9.27696
23.905663 20.947304 10.073334
24.380682 21.25447 3.2006454
24.161493 21.625463 3.5491009
23.616463 21.524128 4.349252
23.792242 21.768167 10.138879
23.960054 22.676191 3.7397063
23.578495 22.366755 4.4838595
23.56467 22.749783 10.257906
24.20535 22.254446 10.680899
24.03546 23.41733 3.9025414
23.61176 23.366554 4.424067
23.447205 23.644188 10.168742
23.656687 23.86725 4.709117
23.500055 24.387598 5.514912
23.534674 24.042936 10.107345
23.292482 24.733248 6.061926
23.321035 24.968737 6.543853
23.635126 25.170956 7.371617
23.793825 25.083025 8.840567
23.475668 24.83586 9.23232
24.440893 26.61229 -1.1567686
24.445642 26.60027 -0.83787256
24.286148 27.190977 20.76441
24.45785 26.967955 -0.8306273
24.217325 27.71342 19.845005
24.10786 27.610579 20.570929
24.160297 27.792465 21.153091
24.271276 28.779692 19.07731
24.041767 28.62628 19.71939
23.934143 28.433283 20.409052
24.133715 28.463724 21.152987
24.207098 29.630293 18.936056
23.951843 29.368353 19.703104
23.933697 29.533215 20.371473
24.144053 29.32997 20.961575
23.818708 31.469503 10.49753
24.234827 30.313639 19.001831
24.050962 30.46494 19.669828
24.07574 30.36531 20.407082
24.19707 30.253752 20.80187
23.398195 32.13614 8.74787
23.611889 31.661491 9.685537
23.375233 31.615982 10.335834
23.864166 31.604694 11.199241
23.984413 32.03248 11.869799
24.354752 30.845821 19.022207
24.177675 30.811615 19.766722
24.19675 30.766754 20.197464
23.654202 32.73583 8.426016
23.30505 32.575047 8.547346
23.587252 32.695633 12.394342
24.104355 32.57959 12.990563
23.57036 33.245926 8.423948
23.456652 33.5065 8.541756
23.599989 33.635307 12.876568
23.485214 34.30217 8.938848
23.51009 34.49713 11.58117
23.628813 34.34801 12.623511
24.045044 34.172173 13.455329
23.691248 34.780083 9.286903
23.593582 34.903675 9.617314
23.665808 35.098743 10.445841
23.705585 34.997368 11.195752
24.066687 35.14523 12.245766
25.303598 2.3791273 7.5476747
25.166792 2.8298733 6.976042
25.021297 2.7841783 7.566887
25.14584 2.787618 8.233386
25.305645 3.6876795 6.1868196
24.97236 3.53025 6.8134227
24.765162 3.464596 7.485978
24.803934 3.4180908 8.14331
25.286364 4.720925 5.9716067
25.002567 4.4072623 6.634808
24.795227 4.1576405 7.2911487
24.82387 4.6028366 8.419095
24.912352 4.6067224 9.623542
24.922915 4.6988487 10.04773
24.974009 5.0505795 11.188055
25.320137 4.901082 22.76115
25.30525 4.9499016 23.396118
25.258085 5.2602224 6.3441396
24.984133 5.764888 8.61726
24.61776 5.813762 9.616464
24.583185 5.624984 10.425815
24.65742 5.626129 11.080963
25.114162 5.8311005 11.97617
25.36456 5.454616 22.220396
25.225222 5.505356 22.74752
25.234364 5.4566803 23.395926
25.346094 5.4968715 23.750595
24.826296 6.3775287 8.615843
24.626207 6.3935018 9.330669
24.511293 6.6570344 10.664529
24.628044 6.4315953 11.239433
25.057709 6.4410014 11.913411
25.305069 6.0515623 22.760334
25.268871 6.0535126 23.24548
25.077547 7.410723 8.1040535
24.873543 7.3503284 8.581745
24.645626 7.674833 9.525194
24.557577 7.4524264 10.545118
24.654156 7.9862742 10.957717
25.067137 7.4137516 11.77227
25.368067 8.519921 8.158535
24.993317 8.483501 8.864536
24.660603 8.311147 9.609996
24.571156 8.497701 10.42635
24.728256 8.456905 10.949218
25.385181 10.228844 6.5823903
25.367678 9.293252 8.58649
24.950672 9.219958 11.166524
25.319435 10.969071 5.7743497
25.055216 11.05284 6.5301313
25.212759 10.847213 7.208207
25.370369 10.731721 8.838499
25.40786 10.320841 9.835192
25.07177 10.015231 10.33281
25.327568 10.176626 11.070686
25.295343 11.790806 4.874962
25.159521 11.607832 5.5249453
25.141829 11.300631 6.300386
24.966417 11.540735 8.225595
24.706656 11.88474 9.377766
24.280611 12.435857 9.96786
24.827394 11.7339525 13.961723
24.46267 11.725591 14.331162
24.452848 11.8741865 15.169566
24.454414 12.050374 15.645013
25.25494 12.299557 4.9167943
25.181498 12.6279955 5.270957
24.852123 12.468768 6.6507816
24.433098 12.5668125 7.908712
24.922197 12.624296 10.895753
24.657537 12.55753 13.0001745
24.516571 12.572211 15.834758
25.250902 13.069908 5.590949
24.397034 14.000558 6.865533
24.67593 13.568766 16.0796
24.155268 14.435682 6.5881686
24.780241 14.795123 16.052267
23.995287 15.223716 6.64354
24.439734 16.00268 7.651655
24.520298 16.36345 11.191181
24.571545 16.351553 14.469088
25.41377 16.858362 16.282991
24.717182 16.662987 8.822702
24.829556 17.127768 10.412913
24.782034 16.782084 11.335469
24.631678 16.717827 13.497688
25.123577 16.976036 14.435934
25.343433 19.186367 10.6759405
25.108511 20.212164 3.4025338
24.801897 20.040127 4.4854302
24.742472 20.162735 7.0171704
24.864119 20.217415 7.5440516
24.898859 19.63012 9.576519
24.63752 20.153498 10.015396
25.058842 20.876234 2.631236
24.538536 20.597181 3.6861982
24.35603 20.490767 4.2041607
24.652214 20.54083 10.598014
25.119959 21.60837 2.241782
24.613321 21.356373 2.90053
24.412878 21.267921 3.497149
24.416618 21.507973 10.502395
24.782608 21.946957 11.029427
24.600456 22.438883 3.015429
24.670979 22.556326 11.056876
24.80756 23.251186 3.1935287
24.346203 23.161335 3.4296749
24.287 23.654972 10.361109
25.31646 25.04672 -2.1863296
25.21486 25.255348 -0.92647856
24.754454 23.947037 3.765059
24.41354 24.324995 4.690847
24.414845 24.533966 5.2822194
24.48311 24.445498 10.060563
24.862175 24.01247 10.692111
[...]
POINT_DATA 7569
SCALARS features_00 float 1
LOOKUP_TABLE default
0.8483374 0.83655936 0.85741556 0.83718693 0.77760124 0.802628 0.7894806 0.76446116 0.83619213 0.8376781 0.8139842 0.7792829 0.86279035 0.8666586 0.8075181 0.7659256 0.8048327 0.81711733 0.7474053 0.7085365 0.4861925 0.5434333 0.5873809 0.5022497 0.5281472 0.58736265 0.62658876 0.640309 0.5592765 0.5923164 0.6514661 0.64654016 0.96057594 0.90465474 0.8264402 0.92349434 0.84092355 0.78022176 0.84783846 0.789997 0.7309787 0.6746963 0.7348653 0.6070239 0.648504 0.6497549 0.73187375 0.78453004 0.71260786 0.6638256 0.6415476 0.6593334 0.6470032 0.70552146 0.67217296 0.66682327 0.49072114 0.6384591 0.659256 0.65039575 0.6665149 0.7282009 0.7321763 0.65035504 0.58246624 0.36558104 0.5635402 0.6102339 0.6221795 0.63263476 0.6804904 0.48877615 0.43436563 0.31105185 0.47626406 0.37883034 0.37579107 0.40426457 0.4636242 0.50272167 0.47416747 0.45718378 0.3997167 0.4025022 0.4522689 0.49578667 0.54933643 0.5717654 0.5643319 0.430394 0.4802424 0.49208736 0.61389095 0.58011305 0.44829008 0.507696 0.54069877 0.6029091 0.6465007 0.62988317 0.5865708 0.5433709 0.57258606 0.6259817 0.6094055 0.9803609 0.982597 0.88287145 0.7573497 0.96418 0.98379934 0.7985395 0.9458023 0.9133997 0.7294272 0.62316847 0.8860127 0.8371339 0.757344 0.6670212 0.60664696 0.78426915 0.7387105 0.615361 0.37334138 0.34620273 0.36624065 0.3525042 0.5606914 0.62568164 0.6397364 0.5141114 0.42471856 -0.00881904 0.5488771 0.6501875 0.6417575 0.5852943 0.5669237 0.618111 0.57697684 0.61144835 0.5752276 0.6202087 0.4454698 0.5755979 0.6113269 0.5824484 0.5255612 0.14299755 0.27709025 0.35764813 0.4661707 0.49535668 0.32695302 0.37473243 0.36801904 0.3503288 0.36074558 0.35555607 0.36116436 0.39761126 0.36035115 0.3706938 0.39344218 0.3909855 0.40091333 0.41529107 0.40227824 0.45822892 0.35104203 0.39330316 0.41111457 0.5081609 0.41506493 0.45734435 0.5109862 0.4945917 0.50345135 0.45223325 0.48827377 0.5538659 0.77018327 0.7726888 0.9380662 0.7950457 0.82820225 0.9076563 0.9084485 0.63459706 0.7682282 0.85633576 0.8592447 0.62744045 0.75923836 0.81448746 0.81503975 0.7342961 0.6642922 0.7451675 0.770157 0.7687708 0.9353799 0.88947695 0.81977403 0.660805 0.6132476 0.67232895 0.7359682 0.7458676 0.8810539 0.9275646 0.6547023 0.5583311 0.8764553 0.88891166 0.5382911 0.86506176 0.57147986 0.48088357 0.39402676 0.7942642 0.7562585 0.6586092 0.5900551 0.47483993 0.6126181 0.61378515 0.6101141 0.59248453 0.5985395 0.60519075 0.58793485 0.559527 0.51998717 0.5508176 0.54449236 0.37638342 0.3845786 0.41287175 0.46921182 0.88450944 0.9051158 0.43164515 0.30017492 0.3461617 0.3955706 0.43753004 0.43624955 0.8595201 0.89249873 0.91509473 0.9254693 0.29081917 0.31709933 0.37089157 0.4022504 0.40087184 0.88683724 0.9057228 0.22779846 0.26773244 0.31049368 0.3538931 0.3522422 0.35185498 0.1801998 0.2565713 0.3091954 0.33543786 0.34349042 0.31824017 0.16701752 0.31699312 0.5263697 0.3581379 0.1590101 -0.10166253 0.18066277 0.2654003 0.21639018 0.70850885 0.58624625 0.42098677 -0.06709631 -0.023401648 0.1801236 0.48750466 0.57037354 0.61897004 0.5906817 0.70815253 0.65424395 0.33737022 0.18333521 -0.081550464 0.24074946 0.5540788 0.57410467 0.41770136 0.4631189 0.47742736 0.3357647 0.5236304 0.42927003 0.029035402 0.29216605 0.28858203 0.35812604 0.02957216 -0.03152427 0.14381716 0.090370744 0.097781435 0.31112066 0.31178015 0.25647688 0.2709486 0.22493239 0.27528638 0.3392883 0.35127977 0.35210785 0.26371527 0.3307545 0.36053938 0.37651032 0.3187316 0.2533616 0.39992446 0.26409867 0.3623173 0.3962013 0.36850452 0.5070514 0.56393945 0.29020208 0.31922656 0.32885063 0.32160988 0.20444809 0.53726315 0.5974996 0.6891056 0.640287 0.888731 0.59470725 0.6767789 0.75008976 0.767653 0.7629678 0.26319674 0.8515231 0.92949796 0.94686246 0.75615746 0.792341 0.79738027 0.7771208 0.67741585 0.8048583 0.91441137 0.8758055 0.79937565 0.8034948 0.44801313 0.84985137 0.8195778 0.39465803 0.5198734 0.7650497 0.7667881 0.6703329 0.6306631 0.61244786 0.7388532 0.84379315 0.5288792 0.44770208 0.6106367 0.67756665 0.72672814 0.70671666 0.81325054 0.7627382 0.8343446 0.77620006 0.2738015 0.2614169 0.808071 0.36796364 0.29040083 0.28275743 0.66493547 0.63463354 0.52217954 0.456121 0.39991188 0.32275164 0.28866863 0.49837798 0.44954216 0.6005424 0.605422 0.6024287 0.5989561 0.6056112 0.6130828 0.5992928 0.51962537 0.57209206 0.37166712 0.30494726 0.31408343 0.81374717 0.83746934 0.8187452 0.47301942 0.5185114 0.42042303 0.39872715 0.8261087 0.8631814 0.8781072 0.8859672 0.4092391 0.4004292 0.3946368 0.30784783 0.83547866 0.8635762 0.93024457 0.32432526 0.28215444 0.2019298 0.29635155 0.83632374 0.8742506 0.9132556 0.91960716 0.16839738 0.31973177 0.83763754 0.8741456 0.89210415 0.041415855 0.20142245 0.52110696 0.14015667 0.6851743 0.55505264 0.16186626 0.08193688 0.38495183 0.7912768 0.7727468 -0.30471084 -0.31625244 0.2723119 0.44740805 0.7777075 0.75591624 0.3471501 0.7505726 0.7242923 0.31491187 0.28765213 0.436288 0.32054594 0.21202326 0.29394418 0.3139158 0.075348556 0.30302602 0.31970233 0.07050863 -0.24317138 0.2858414 0.3087613 0.374043 0.36605576 0.08693833 -0.01986026 0.008353196 -0.0700859 -0.0765448 0.14183648 0.28333378 0.3699425 0.3956014 0.25505918 0.24680394 0.24684866 0.15449397 0.18925127 0.030008756 0.22669503 0.3509463 0.37635788 0.30107304 0.3033382 0.09803327 -0.018163346 0.24887678 0.1107639 0.2181341 0.28063923 0.29974383 0.25806767 0.32993922 0.30142832 0.14383197 0.030094713 0.1461274 0.27232215 0.33678827 0.3386112 0.49150902 0.45632398 0.45515633 0.43444213 0.45236874 0.21608478 0.04545544 0.009648919 0.16284266 0.2818375 0.3340954 0.5158373 0.53330076 0.63184905 0.005059954 0.07649926 0.020331949 0.809503 0.86909395 0.52805644 0.5758182 0.68997175 0.361773 0.3898167 0.35797894 0.29663476 0.14462733 0.67119336 0.7648709 0.93466574 0.90865576 0.6107491 0.69213486 0.7608708 0.3995176 0.45582175 0.43056113 0.3523169 0.46326917 0.8402686 0.7016242 0.7582135 0.77407646 0.7653385 0.25705194 0.29067695 0.77064663 0.23082918 0.30463788 0.6760803 0.6938984 0.66510963 0.6255333 0.54213977 0.18391374 0.36213666 0.6750072 0.74473023 0.6862833 0.13509262 0.05435756 0.34950984 0.6470455 0.70424926 0.73253345 0.19797774 0.6274455 0.70478237 0.2741444 0.27206993 0.7393007 0.27675584 0.16735445 0.6746634 0.511427 0.33231983 0.283951 0.28278258 0.4829198 0.47933075 0.45259023 0.3585849 0.5419899 0.5404663 0.56800807 0.57641715 0.5669564 0.55388033 0.5472156 0.48441085 0.3955659 0.72603446 0.74710023 0.49440837 0.52053666 0.22938764 0.3068912 0.68481135 0.7338375 0.7612972 0.7454119 0.432777 0.31990838 0.31912282 0.6376475 0.7884128 0.35215843 0.29371598 0.77012694 0.8668432 0.19297984 0.2958057 0.17831293 0.19128011 0.78622127 0.7992939 0.19007066 0.06670313 0.8112124 0.7992613 0.771844 0.72189707 0.028563455 -0.05843664 0.5426089 0.45949107 -0.10471316 0.71951485 -0.21583782 0.054840825 0.77230287 0.2808069 0.7579716 0.15773694 0.28017652 0.71903825 0.69432896 0.333256 0.3947376 0.6476991 0.5623957 0.4193715 0.42998582 -0.0023743063 0.36204368 0.4346396 0.25885698 0.10298454 0.32775706 0.24213476 0.35139936 -0.014211968 0.10882859 0.112792134 -0.42360914 -0.32041433 0.34033722 0.42237055 0.4014632 0.3980773 0.31054732 0.14217281 -0.33861142 -0.10115816 0.34874552 0.44637668 0.39184144 0.3538928 0.29832637 0.2309147 -0.3101723 -0.22152376 0.014428221 0.12676984 0.408829 0.28974828 0.21001738 0.16992332 0.033251196 -0.03937885 0.28288943 -0.09593752 -0.12810081 0.2915445 0.25734416 0.13265882 0.32624328 0.46264702 0.042902887 0.022266224 -0.017177843 0.29637474 0.34967005 0.35231352 0.34189576 0.46580088 0.43192363 0.15678646 0.086615905 0.19842134 0.28918585 0.32510167 0.3569651 0.7662295 0.8090273 0.87867 0.5049939 0.26582912 0.19090165 0.07551392 0.6096657 0.8826343 0.5074752 0.38695234 0.404955 0.32268527 0.28032732 0.8055332 0.8438618 0.56444 0.57406914 0.69752294 0.6494062 0.4362327 0.45850018 0.43064886 0.047356784 0.13590696 0.6330468 0.7301114 0.6358197 0.64584696 0.07952167 0.61318874 0.56522286 -0.00050510466 -0.056197703 0.16262458 0.5100968 0.6397562 0.42719102 0.22618413 0.098906085 0.040210515 0.64756835 0.64826846 0.083905965 -0.03620182 0.2850932 0.65431046 0.06836769 0.04407358 0.64923596 0.5905593 0.16585964 0.057045326 0.46935874 0.4150756 0.32820138 0.28707597 0.39198646 0.44689924 0.41708848 0.35378528 0.40586504 0.40699187 0.4830569 0.5270227 0.5612908 0.5126889 0.5091539 0.46003672 0.51019603 0.52879 0.51838386 0.49757478 0.44006234 0.6086048 0.7017915 0.72729516 0.7235051 0.41618872 0.15243351 0.27137193 0.32978812 0.33578536 0.48988113 0.5764541 0.71077967 0.3509505 0.33693805 0.3388738 0.42365375 0.6705272 0.6361708 0.21012594 0.1824229 0.27396813 0.22774613 0.6029015 0.15209518 0.08739216 0.12328726 0.7276082 0.4959235 0.054950055 0.055983517 0.5799402 0.53234553 0.58237475 -0.060738213 -0.14064613 -0.19115046 0.27433816 0.2814282 -0.17621455 0.5789612 0.6856522 0.6048095 0.04870928 0.6949297 0.6049384 0.18573785 0.24509947 0.41116542 0.69540536 0.6673205 0.5187163 0.46434945 0.48204273 0.47580695 0.2663775 0.42861724 0.28084767 0.3617588 0.27432808 0.26916602 0.40474316 0.38687056 0.36544275 0.3541847 0.20673332 -0.035525084 0.2861419 0.5038656 0.47591835 0.42447108 0.4049399 0.017998714 0.29077792 0.28622234 0.52189875 0.49179018 0.45871708 0.52463907 0.50286704 0.5057415 0.44994998 0.21333799 0.10358624 0.18795541 0.2412493 0.20812966 0.30372137 -0.23141582 0.019008815 0.19905199 0.287937 0.2799007 0.37214372 0.39190695 0.27890795 0.31031686 0.10673632 0.033876926 0.24586202 0.2771831 0.1469369 0.75390536 0.31604695 0.41939655 0.39188188 0.003098078 0.5904948 0.64297986 0.44989005 0.49415988 0.5690848 0.42321026 0.43143862 0.42418826 0.38869524 0.28338993 -0.037945297 0.6680676 0.59643567 0.5640969 0.61080045 -0.06578124 -0.02005362 0.42520133 0.71389747 0.034866784 -0.07610027 -0.05639202 0.5651392 0.3658324 -0.037488326 0.45862913 0.608095 0.57570094 0.21045606 0.54805046 0.2822234 0.49773407 0.43044716 0.40070593 0.43836778 0.3204366 0.2767001 0.38662124 0.27960032 0.35677534 0.29667595 0.44897443 0.50349796 0.45874822 0.51277214 0.57368207 0.57326525 0.56202435 0.5391972 0.6031513 0.6170217 0.5944214 0.4755007 0.4638651 0.47711492 0.43606937 0.42120653 0.2724958 0.4034217 0.20950775 0.285304 0.30348524 0.57733804 0.6748871 0.70106345 0.6992608 0.21516669 0.084429696 0.22020729 0.30006522 0.3251076 0.3207672 0.2844351 0.6289353 0.6018639 0.19260877 0.31766185 0.17332615 0.12523234 0.20245478 0.5070219 0.08032858 0.11536827 0.12404319 0.12735784 0.44244665 0.07816775 0.027464546 0.0808866 0.11517092 0.08156904 0.45618808 0.037140172 -0.16774066 -0.07342355 0.09634711 0.11987974 0.10362983 0.38251197 0.38090694 -0.1812611 -0.07560758 -0.121128164 0.13107526 0.12051716 0.26566184 0.3740294 0.40119675 0.2476697 -0.19670047 -0.08941206 0.0023456514 0.10527828 0.11299792 0.39198828 -0.3551258 -0.16060945 -0.12600917 -0.046441548 0.50657076 0.32611948 -0.109723486 0.53129923 0.252123 0.45209002 0.32229698 0.48249567 0.45366865 0.18525994 0.40865546 0.26364246 0.21893832 0.28830963 0.5950178 0.6770417 0.5241898 0.49050367 0.44507194 0.3560572 0.30857533 0.23418874 0.11272079 0.6792097 0.70441747 0.5496051 0.5326457 0.50405854 -0.04772356 0.093844675 0.5460365 0.59088147 0.6691218 0.6103999 0.5507812 0.5277605 0.18091361 0.3072274 0.49255347 0.5329912 0.5738683 0.55405873 -0.049608186 0.14359285 0.24712911 0.30842063 0.3871997 0.41958177 0.51938885 0.07265708 0.28122908 0.3052209 0.3190128 0.31783718 -0.008127779 0.20599568 0.29686004 -0.20422022 0.059297234 0.13928065 -0.20983058 0.51737094 0.33496806 0.15964071 -0.08696141 0.30955368 0.15836284 0.17591456 0.16893345 0.014081761 -0.36334485 -0.16053502 0.39376098 0.47499156 -0.05569297 0.10194245 -0.008620217 -0.12162423 0.32683715 0.50997806 0.43453667 0.33485115 -0.0969446 0.33925468 0.43282217 0.4629062 0.40108913 0.25637996 0.053983256 0.35176522 0.85631055 0.7341286 0.6234828 0.2879697 0.037416928 -0.03145495 -0.060217112 -0.11979567 0.8858406 0.7799463 0.72182226 0.64321375 -0.015053954 0.89488137 0.84999454 0.76355445 0.7050612 -0.05048786 0.3822108 0.46634245 0.47406888 0.44998515 0.49508023 0.48285997 0.35977024 0.24513152 0.47915828 0.28971693 0.21755537 0.40226412 0.24865133 0.48013464 0.44725734 0.5522996 0.5338827 0.6563747 0.6785999 0.6679242 0.6288495 0.5688633 0.6778364 0.35980558 0.35505453 0.062112413 0.028542295 0.25466388 0.1654255 0.232938 0.2781899 0.30425823 0.30247986 0.2808814 0.59734505 0.16769364 -0.1705224 0.09898497 0.30697206 0.021249555 -0.073459856 0.18723845 0.17159405 0.11405596 -0.00010215491 0.40299177 0.65872324 0.1813826 0.11867936 0.058345765 0.3971989 0.7102026 0.67602336 0.5951507 0.18711658 0.2247028 0.1805893 -0.022204593 0.38690925 0.7113787 0.6753988 0.57671016 0.2613741 0.28527835 0.27286357 0.33537674 0.68636286 0.64096373 0.5634346 0.44776797 0.4541888 0.45371392 0.20378187 -0.22498082 0.09069863 0.24152032 0.24686626 0.23073171 0.25159538 0.5177684 0.52017856 0.46663633 0.3388827 -0.055922076 -0.013103947 0.12741342 0.11637147 0.2128091 0.10436441 0.18338947 0.21379977 0.24833545 0.22050872 0.22400133 0.19661693 0.21439311 0.07713531 0.005816619 0.35820433 0.38104588 -0.20853089 0.3539499 0.114643015 0.3995467 0.22553495 0.17701049 0.12419782 0.1336745 0.5759008 0.6596177 0.5496375 0.5405607 0.44561413 0.25919217 0.20394987 0.71604073 0.70707893 0.586027 0.58217835 0.6691084 0.58094513 0.5566805 0.55557096 0.5707178 0.4035977 0.45284808 0.5398297 0.5076802 0.31269047 0.33598113 0.29037654 -0.13437416 0.10461469 0.29306522 0.2862008 0.46189877 0.40193638 0.2098641 -0.3269018 0.26804924 0.59343946 0.53454256 0.47889042 -0.38221422 -0.15123469 -0.07702015 0.60430753 0.574168 0.07895084 0.36067772 -0.2340543 -0.218652 -0.41185325 -0.07934661 0.6836556 0.1491868 0.14353463 0.090877146 0.31902155 -0.106884144 -0.113991514 -0.09497042 -0.08695183 0.8688086 0.088725924 0.1500285 0.23211204 0.015000917 0.12165077 0.1423787 0.047440536 -0.041221112 -0.07875539 -0.05447013 -0.09560703 -0.037278682 0.8897851 0.9030694 0.3949268 0.36038882 0.24489972 0.04656349 -0.00014074147 -0.03642851 -0.10497025 0.09316971 0.21897742 0.91301817 0.8979863 0.8427552 0.6951618 0.47525063 0.51647377 0.5313204 0.48737544 -0.09545306 0.33042133 0.551113 0.56946576 0.5233207 0.44712317 0.4136877 0.12508808 0.45632637 0.19175228 0.11454976 0.44662976 0.1466678 0.17702138 0.42477822 0.2483541 0.31873435 0.49541652 0.40332907 0.49355477 0.54894936 0.5180383 0.6023594 0.64799595 0.65711474 0.6251049 0.559664 0.6678058 0.094242804 0.12670442 0.12022207 0.124247745 0.02352859 -0.1362208 -0.12128614 0.11058766 0.16112381 0.26412657 0.29465693 0.2789963 0.25642192 0.19965197 0.05198861 0.16756971 0.12271922 0.10896498 -0.14891349 0.0573596 0.29235372 0.14647684 0.26505166 0.33408982 0.64561903 0.6189213 0.46014124 0.1491657 0.17094505 0.35422227 0.68797624 0.7064543 0.31344533 0.17530374 0.36599302 0.70478797 0.7163453 0.47123277 0.18603753 0.28724548 0.66549563 0.6573787 0.6323768 0.5294725 0.13903469 0.18710749 0.49049893 0.46762478 0.19681925 -0.063377105 0.00783819 0.4888972 0.5196119 0.49135163 -0.02588475 -0.018877849 -0.010348596 -0.005151741 -0.5898645 0.220795 0.08489389 0.20777008 0.04760174 -0.25211185 0.13579594 0.1955469 0.26477617 0.2575486 0.18707903 -0.09849397 0.2631221 0.28918287 0.36282897 0.31673118 -0.10972443 -0.023801193 0.5048732 0.5374588 0.61330205 0.47016802 0.21925025 0.57138705 0.6888976 0.59247 0.55854154 0.66683376 0.58251166 0.5841441 0.53705776 0.5279929 0.42533112 0.4732179 0.47262338 0.2782461 0.33198577 0.21602118 0.24334818 0.48544693 0.4512236 0.39494205 -0.37513235 -0.4060177 -0.14004911 0.14796188 0.22747202 0.22842667 0.6130968 0.55028677 -0.16237585 -0.08490953 0.66402614 0.034309812 -0.48073208 -0.0091917515 0.043630548 0.706909 0.69691515 0.052298315 0.83821154 0.13534188 0.13980943 -0.23265654 0.86514723 0.87453526 0.14188547 0.105715185 0.12891653 0.14235178 0.102881625 0.015850274 -0.024315925 -0.064270586 0.90598327 0.9040779 0.8435574 0.6638429 0.1582871 0.44360396 0.25860292 0.1398279 0.15111685 0.16338867 0.18467452 0.19715455 0.16714975 0.23506524 0.47069144 0.5702919 0.57444525 0.5123243 0.428194 0.24552456 0.2697701 0.24979624 0.29756254 0.3591895 0.5635216 0.57293594 0.5349332 0.01447146 0.37746784 0.43499953 0.033541277 0.30746675 0.21953404 0.28539345 0.37870795 0.41914672 0.38149256 0.46893185 0.53823924 0.49566627 0.46114162 0.5511385 0.5947604 0.61108375 0.6046747 0.5361571 0.31086585 0.26746866 0.18593372 0.23105933 0.22214426 0.12347242 0.011392699 -0.10451497 0.22083798 0.23255126 0.08141028 0.11843996 -0.04069581 -0.026065279 -0.03124696 0.05404547 0.14453521 0.20928925 0.25410226 0.24840339 0.20798375 0.21938264 0.1302231 0.040201686 0.13592832 0.42778695 0.04301475 0.053989492 0.09739086 0.42828453 0.11210855 0.081490986 0.24913435 0.52920914 0.4854983 0.5170415 0.4466112 0.13553303 0.34375343 0.5522697 0.31713128 0.6040524 0.1840114 0.18218207 0.60104257 0.5936793 -0.0100786695 0.021295529 0.53007114 0.53377485 0.43631762 0.34901592 0.011770979 -0.0356115 0.41244575 0.46114004 0.45706952 0.029449476 0.04510717 0.04408562 0.13994317 0.09583784 0.12318905 0.09793446 -0.52043355 0.17421906 -0.53779775 0.16793478 0.17056027 -0.33190072 -0.42611757 0.07480102 0.16091421 -0.23895842 -0.52590907 -0.143282 -0.43977582 -0.02061925 0.09509388 0.48924586 -0.18091515 -0.2797535 -0.05149157 0.46477154 0.4174562 0.4248379 0.38332862 0.3669049 -0.20786434 0.033076324 0.36986697 0.4167693 -0.43060535 -0.25597024 -0.1619265 0.3276973 0.3958069 0.44291788 0.20910974 0.6179466 0.50048435 0.41759697 0.310367 0.44666785 0.38658732 0.30230522 0.37994277 0.25124666 0.32773912 0.18678057 0.1989878 0.34507126 0.1734685 0.18501493 0.5328609 0.06199812 0.6469037 0.06239391 0.639524 0.09346376 0.74991643 -0.031717345 0.7556461 0.7899482 -0.1144524 0.86405563 0.8650197 0.80898273 0.5220731 0.21958506 0.27128047 0.1564444 0.122669816 0.06480037 0.1576357 -0.060600877 0.4411851 0.22095576 0.18850175 0.23717648 0.28839403 0.07585873 -0.09202968 -0.09984011 0.14199817 0.52724665 0.5538322 0.5105509 0.3208288 0.31601822 0.294433 0.24323954 -0.027743056 0.003444977 0.022297151 0.013903168 0.1980735 0.23231906 0.21518548 0.32737434 0.29922253 0.40962625 0.42870966 0.4697137 0.32233152 0.25201008 0.36010832 0.37818903 0.3345537 0.18885657 0.5385643 0.60412943 0.6193155 0.14431104 0.22836617 0.042452633 0.086026914 0.07887785 0.20480391 0.15874077 0.4778366 0.556066 0.58801883 0.5233761 -0.087568015 -0.023818322 0.040487483 0.026906151 -0.07197999 0.12111525 0.17348672 0.1923085 0.1757972 0.15683106 0.17541552 0.12751433 0.41370606 0.3776772 -0.10267574 0.106223986 0.29987356 0.31768483 -0.017789636 0.12274736 0.32052082 0.24896963 0.3528308 0.28109607 0.13657282 0.33244234 0.6398191 0.47741172 -0.120902285 -0.10831586 0.62609977 0.37750322 0.26695448 0.14219493 -0.06451419 0.24100988 0.31601724 0.057114176 0.24729589 0.20058607 0.09977141 -0.46236095 0.12181965 0.24216732 0.23002577 0.0099059045 -0.41664922 0.1681095 0.13707247 -0.34067094 -0.37982476 0.16563338 -0.19990306 0.07775718 0.13049647 -0.13415629 -0.5454721 -0.44824263 -0.15417072 -0.5106518 0.6069652 0.5453439 0.49300605 0.4702962 -0.13759208 -0.50090927 -0.041020054 0.05105352 0.039355777 0.33451438 0.0008258987 -0.034875132 0.65562874 0.708717 -0.14134659 0.4572608 0.59018403 0.2523206 -0.2750815 0.36256284 0.52384675 0.21072796 0.08874426 0.17958184 0.196015 0.20445034 0.21284443 0.20476007 0.15530564 0.59829414 0.5553254 0.12074556 0.13346905 0.58519256 0.5201147 0.44224006 0.61740065 0.6018553 0.45700297 0.03643372 0.6792407 0.15343484 0.22161801 -0.092508525 0.27831432 0.41543555 0.2613087 0.16069612 0.16929774 0.19232616 0.12428516 0.17199682 -0.06841214 -0.27607822 -0.124158144 -0.3167948 0.16309278 0.3820141 0.38360795 0.43498164 0.34932166 0.071833014 -0.19941667 0.47173345 0.43589175 0.41345572 0.32557422 0.260112 -0.07392818 0.25955436 0.15756