# vtk DataFile Version 2.0
Really cool data
ASCII
DATASET POLYDATA
POINTS 8919 float
-12.930746 18.16403 -3.0605688
-12.925653 18.010765 -2.1777942
-12.789013 18.09935 -1.5407546
-13.080687 18.73411 -3.1670756
-13.234031 18.60345 -2.4942372
-13.086026 18.673931 -1.6705003
-12.792281 18.727474 -1.1427255
-13.026157 19.258394 -3.182219
-13.25386 19.480967 -2.344971
-13.169875 19.447327 -1.7701885
-12.877675 19.334599 -1.1444361
-12.841426 19.934984 -3.0392318
-12.934006 20.220499 -2.2311418
-12.889427 20.189444 -1.700605
-12.816016 19.98919 -1.1416434
-12.097415 17.414013 -2.4545736
-11.932035 17.40014 -1.7599427
-12.504808 18.05583 -3.4752405
-12.511293 17.642118 -2.4873521
-12.43874 17.689157 -1.7494814
-12.213509 17.99684 -1.0027084
-12.333827 18.56765 -3.8928518
-12.371817 18.587437 -0.84070504
-12.497955 19.22248 -3.800292
-12.672018 19.735601 -3.49717
-12.324912 19.543665 -0.77729964
-11.735371 20.284988 -3.8032207
-12.359372 20.300447 -3.2370384
-12.580142 20.518774 -2.4945364
-12.435293 20.512924 -1.5486758
-12.451631 20.083208 -1.0496292
-12.004427 20.715496 -3.0589433
-12.271714 20.740543 -2.3524692
-12.098374 20.75289 -1.743902
-10.528615 11.8216305 -8.243559
-10.5619 11.907559 -7.766159
-10.583471 12.451973 -8.28676
-10.560111 12.455121 -7.640665
-10.519533 13.021092 -7.848047
-10.855009 16.737728 -4.2292647
-11.230204 16.940168 -3.243812
-11.603381 17.217419 -2.5350509
-11.473829 17.321352 -1.7705579
-10.9890175 17.948547 -4.7619386
-11.142462 18.639984 -4.722776
-11.482593 18.393753 -0.6294683
-11.117116 19.082018 -4.72237
-11.306652 19.666656 -0.6930833
-10.590651 20.22023 7.1425085
-11.211384 20.356133 -4.136653
-11.679352 20.42008 -3.6327949
-11.808798 20.105974 -0.88409495
-10.749034 20.959478 6.840889
-10.736414 20.80407 7.424896
-10.604945 20.642778 8.435235
-10.524315 20.708212 9.014885
-11.156187 20.690659 -3.9425957
-11.228998 20.917759 -3.4013443
-11.507882 20.99334 -2.5359561
-11.520956 20.901527 -1.8554296
-10.704602 21.45763 6.8376417
-10.7409315 21.457617 7.4626136
-10.615975 21.289614 8.385352
-10.532129 21.146507 9.1216
-10.609225 21.840496 6.877204
-10.607304 21.85141 7.424515
-9.909709 11.156403 -8.989133
-9.948806 10.927847 -8.351118
-10.104858 11.042566 -7.716782
-9.933695 10.997626 -7.074812
-9.768106 11.94168 -9.628422
-10.0059185 11.67228 -9.3359165
-10.4331455 11.7347765 -8.449323
-10.38683 11.593679 -7.5793223
-10.102218 11.57338 -6.8154535
-9.840201 12.192248 -9.628157
-10.154141 12.345655 -9.21958
-10.462936 12.249656 -8.676252
-10.459414 12.5246725 -7.399861
-10.345423 12.4769 -7.0956635
-9.988725 13.1322155 -9.041388
-10.356811 13.257026 -8.269095
-10.433938 13.065391 -7.57545
-10.18826 13.079532 -7.0646453
-9.908124 13.973041 -7.8049526
-10.0669365 16.45288 -2.6163867
-10.083247 16.790237 -4.976173
-10.526514 16.78906 -4.439269
-10.467419 16.495436 -3.4828973
-10.431203 17.09111 -1.7427385
-10.156361 17.47641 -5.1022186
-10.549933 17.745163 -1.2040608
-10.412435 18.38167 -5.078635
-9.852931 19.276701 7.455245
-9.698505 19.154148 9.193169
-10.333841 19.348392 -5.020795
-10.682199 19.42065 -0.7758988
-9.838701 19.864748 6.2014627
-10.1317425 19.846691 6.738182
-10.396988 19.941124 7.5537953
-10.310219 19.877592 8.537827
-10.001574 19.680407 9.4136915
-9.930052 20.01681 9.999662
-10.405412 20.160297 -4.6230807
-10.539769 20.327528 -4.389363
-10.576673 20.56625 -1.4020704
-10.747515 20.14503 -1.0598326
-10.100746 20.631313 5.9243603
-10.440731 20.603565 6.4318576
-10.364289 20.600183 9.52335
-9.998938 20.616753 10.148856
-10.475793 20.841537 -3.95007
-10.475688 21.068382 -3.3066196
-10.746778 21.07466 -2.5809789
-10.508701 20.86844 -1.8289008
-10.137765 21.051243 5.8804135
-10.496877 21.553978 6.412644
-10.372135 21.581146 8.599478
-10.24223 21.402718 9.535285
-9.998242 21.355879 10.034364
-9.938366 21.923937 6.1517353
-10.23585 22.10783 6.81493
-10.302239 22.148994 7.4555554
-10.312536 21.969822 8.149801
-9.982476 21.83006 9.507333
-9.875235 21.766006 9.871836
-8.670155 8.948105 2.7673576
-8.672817 8.94724 3.2479131
-8.953994 10.394317 -7.882771
-8.726272 10.241797 -3.014364
-8.559493 10.158161 -2.0731168
-8.609483 9.505703 2.0862803
-8.791663 9.544337 2.8505285
-8.719276 9.473661 3.4234576
-8.609889 9.462529 3.965991
-9.445607 11.048081 -9.3061075
-9.418294 10.659801 -8.453734
-9.629021 10.650881 -7.503332
-9.3277025 10.851969 -6.6723266
-8.933789 11.049685 -5.499433
-8.99429 11.034744 -4.1173334
-8.81606 10.556141 -3.257902
-8.827136 10.655692 -2.4840863
-8.782365 11.075319 -1.7197677
-8.668734 10.108185 2.708223
-8.671406 10.1813755 3.2758563
-8.619235 9.985144 3.8294907
-9.4611435 11.65781 -9.74866
-9.405 11.334271 -9.590537
-8.892295 11.72593 -4.625429
-9.095785 11.746879 -3.360989
-8.9805 11.753619 -2.4910355
-8.678926 11.360175 -1.4966561
-9.307165 12.221847 -9.829555
-9.707086 12.582873 -9.548111
-9.309753 12.579687 -5.8365827
-9.058717 12.163218 -4.4616184
-8.961419 12.199701 -3.5525818
-8.80302 12.447854 -2.4567611
-8.724414 12.279367 -1.5164272
-9.359613 13.058934 -9.538001
-9.399092 13.5557995 -6.6470423
-9.035447 13.027469 -3.8123646
-8.6132 12.827985 -1.527246
-9.458395 13.655876 -8.87877
-9.232428 13.955709 -8.661329
-9.446021 14.109321 -7.6642523
-9.343309 13.9319935 -6.4541464
-8.998086 13.887176 -5.3012753
-8.713013 14.94022 -4.950441
-9.3154745 15.93813 -4.705011
-8.799887 15.673783 -3.915449
-9.648847 16.315912 -2.574442
-9.125306 16.99099 -5.741777
-9.172759 16.844904 -5.6204596
-8.9880295 17.866909 -5.7414837
-8.770902 18.267809 7.720321
-8.64083 17.948874 8.734623
-8.71039 18.111828 9.126294
-9.288989 18.462822 -5.7062635
-9.374492 18.184336 -1.3306565
-9.365943 18.671188 7.790203
-8.956406 18.626118 9.472458
-9.01107 19.132582 10.119856
-9.360957 19.465517 -5.4302015
-10.057189 19.479671 -0.9452994
-9.550151 19.840279 5.993909
-9.335182 19.349447 6.3032436
-9.3702345 19.61962 10.274742
-8.924331 19.997684 10.705559
-9.222959 19.727646 -5.3080597
-9.485405 20.397842 -4.4881954
-9.869248 20.52314 -1.365337
-9.160347 20.774004 5.255896
-9.549989 20.561457 10.498862
-9.301444 20.576113 10.640334
-9.760813 20.95783 -3.4159236
-9.568619 20.86713 -2.4474807
-9.659903 20.80676 -1.9982388
-9.531782 21.415495 5.674021
-9.430402 21.350662 10.391874
-9.302357 21.012106 10.582988
-9.45392 21.88826 5.9843364
-9.58226 22.312866 6.690054
-9.521637 22.41298 7.5013824
-9.377019 22.273724 8.470387
-9.4922 22.044172 9.500486
-9.484546 21.842329 9.933988
-9.641398 22.516058 7.416801
-8.012884 8.23596 2.7904701
-8.045705 8.332844 3.365146
-7.675019 8.627145 -2.1593292
-7.9701514 8.877804 -1.3659683
-7.985955 9.054743 -0.58758366
-7.8367667 9.257896 1.1246139
-7.9293876 8.635841 1.8461832
-8.357326 8.518673 2.7046852
-8.400876 8.616095 3.4528966
-8.293642 8.893819 4.149164
-7.8086605 9.052235 5.2077365
-8.580608 10.2807455 -7.4110985
-7.623632 9.334568 -6.5543413
-8.027589 10.330458 -5.217911
-8.307567 9.742733 -2.6788175
-8.23165 9.577062 -0.6638698
-8.149952 9.775119 0.74409044
-7.91319 9.596292 1.2150137
-8.503754 9.337153 4.0121603
-7.8593464 9.504175 5.2240877
-8.530382 10.765855 -9.203467
-8.4407835 10.700917 -5.434229
-8.35284 10.694319 -0.2390245
-8.249264 10.584475 0.100372076
-8.392288 10.311324 1.7697227
-8.387255 10.723366 2.5390127
-8.446916 10.430038 3.619565
-8.246457 10.384571 4.1817875
-7.8594007 10.222983 5.0841756
-7.876876 11.264552 1.3626958
-7.9156857 11.357632 2.7838442
-7.879331 11.311911 3.4010823
-7.952946 11.181084 4.054038
-8.19187 12.288945 -0.414184
-8.374173 13.138157 -9.746834
-7.8873534 13.6368265 -9.526365
-8.306037 13.64976 -2.4802775
-8.215418 13.292405 -1.3913983
-8.665043 14.016684 -8.969334
-8.444951 14.305298 -8.467726
-8.2609415 14.97194 -2.9703083
-7.913194 14.6832695 -8.383033
-8.232952 15.033092 -7.25703
-8.584286 15.976151 -2.7201865
-8.642771 16.53724 -2.378817
-8.247768 16.674793 -2.3041298
-7.7611265 17.240015 7.910092
-7.8054824 17.117857 8.827418
-8.708023 17.301628 -5.983072
-8.172585 17.35721 -1.9015285
-7.7583017 17.866547 6.381304
-8.201334 17.640038 7.8886156
-8.110187 17.75172 9.4597845
-7.9063325 17.8845 9.895258
-8.462545 18.618368 -5.998623
-8.2924795 18.711294 -1.6164249
-8.98294 18.723455 -1.3740667
-8.134422 19.026377 5.7716646
-8.373102 18.643715 10.088459
-8.586255 19.493454 -5.6672506
-8.352559 19.63718 -5.590262
-9.15306 19.615742 -1.3217733
-8.401601 19.779068 10.735406
-8.341328 19.786222 -5.468544
-8.442895 20.424656 -4.111914
-8.530629 20.431297 -3.3199987
-8.085059 20.063372 5.574101
-8.555663 20.32081 10.780229
-8.97049 20.55731 -4.0612373
-9.172878 20.725267 -2.4662416
-8.790347 21.083769 5.4229593
-8.816382 21.495811 5.599992
-8.545687 21.423145 10.328398
-8.637184 20.945553 10.686985
-8.944966 21.739244 5.7196255
-8.813008 22.183739 6.5779147
-8.554355 22.230183 7.5667396
-8.858111 22.31528 8.234316
-8.7097 22.036045 9.524196
-8.76414 21.81579 9.981921
-6.8186955 4.9469614 -7.9227676
-6.9396844 4.8216367 -7.3381195
-6.8398676 4.7133274 -6.802274
-6.762565 5.1993775 -5.902335
-6.814409 5.415039 -8.0999975
-7.169292 5.441265 -7.267635
-7.15504 5.3682046 -6.606206
-6.841487 5.383556 -5.722184
-6.943596 5.886818 -4.8437896
-6.9929204 5.7669225 -3.6777263
-7.032832 6.094136 -3.127696
-6.858722 6.566391 -7.8292003
-7.1810174 6.4413404 -7.0407147
-7.2785206 6.3626103 -6.6802387
-7.275359 6.660194 -5.9474487
-7.1289163 6.77296 -3.562157
-6.8664384 6.297303 -2.6782928
-6.764368 7.0335574 -0.8631368
-6.961885 7.6645494 -7.5098705
-7.431692 7.599973 -6.1450233
-7.286157 7.7536764 -5.601136
-7.056611 7.7116146 -4.898886
-7.047496 7.743522 -3.3699293
-7.0090146 7.8067083 -2.5845597
-7.0041323 7.6060724 -1.6828
-6.817242 7.800834 0.46613804
-7.317102 8.31159 1.9833654
-7.5149245 8.149496 2.80381
-7.2276177 8.1442585 3.4570868
-7.7438636 8.336885 3.930822
-6.86751 8.986205 -8.827362
-6.7640276 8.763927 -8.253413
-7.356654 8.281627 -6.284025
-7.285547 8.77502 -4.0033274
-7.259859 8.434965 -1.8516654
-7.437892 8.674563 0.4325734
-7.5013475 8.505033 1.7454197
-7.5872593 8.48034 4.5425587
[...]
POINT_DATA 8919
SCALARS features_00 float 1
LOOKUP_TABLE default
0.85682416 0.8240149 0.8317654 0.9021093 0.921089 0.9145609 0.90951943 0.8742255 0.9406427 0.95243055 0.94468945 0.802161 0.8699802 0.9118353 0.93982565 0.6578704 0.6663499 0.78834 0.7331271 0.7521133 0.7920816 0.7565156 0.8876099 0.7368021 0.7503711 0.93332505 0.6154789 0.7128805 0.7967782 0.8834172 0.9246352 0.69242465 0.77993375 0.83835006 0.7115642 0.67573917 0.7176104 0.6652588 0.68066615 0.49539578 0.54651165 0.58654106 0.614117 0.48656687 0.5016501 0.88352454 0.5095434 0.846734 0.74030656 0.5661625 0.63078105 0.8807421 0.8122084 0.7663345 0.73575586 0.7588925 0.5883597 0.62632203 0.7126976 0.79480064 0.8511858 0.8066207 0.76916945 0.7798271 0.8715772 0.83642924 0.7009948 0.67774796 0.63742954 0.53624713 0.70937383 0.72290933 0.72212374 0.65105104 0.5424242 0.71641874 0.74323416 0.73873353 0.6352229 0.59291875 0.74755335 0.7283932 0.6541163 0.5908047 0.68245846 0.4452716 0.37082332 0.44090983 0.46951896 0.5094155 0.4027145 0.6563635 0.4139867 0.5892642 0.62141204 0.4489399 0.7384106 0.7286634 0.7116914 0.6894868 0.6869364 0.7241254 0.7888669 0.49725792 0.5219717 0.7583153 0.769999 0.87605697 0.81646144 0.7892093 0.8221735 0.5577779 0.61156696 0.68728507 0.7330472 0.9138093 0.8931463 0.78997326 0.8164155 0.83789927 0.9185271 0.8936241 0.85658926 0.81520903 0.8262834 0.84042394 0.62498957 0.6529461 0.46831036 0.18390605 0.19858326 0.56745183 0.62395275 0.6479449 0.6569086 0.6533403 0.61777836 0.5388554 0.3603838 0.1386905 0.18544237 0.20357454 0.24807745 0.2868174 0.5802467 0.58586246 0.6166738 0.65749764 0.6506741 0.18852465 0.25310433 0.29695868 0.31336465 0.6323339 0.7049014 0.3001029 0.18726315 0.24000898 0.3073771 0.3560152 0.6476749 0.5126198 0.17261645 0.35483825 0.65696466 0.58028716 0.6187079 0.4634035 0.010770123 -0.105752245 0.24086633 0.15386304 0.38560623 0.2998319 0.29344288 0.3188882 0.41434097 0.47379208 0.5084667 0.3508767 0.43387347 0.47909033 0.5682614 0.68054354 0.39282984 0.6358058 0.73910147 0.59684926 0.7501775 0.75716233 0.40127307 0.4743313 0.6896854 0.79357094 0.81930757 0.80803275 0.57571113 0.61754936 0.6556627 0.8940239 0.8310455 0.81866586 0.88980484 0.892136 0.86529416 0.8204056 0.82206917 0.8342316 0.8724172 0.56846106 0.6171246 0.009595056 0.05632938 0.08874142 0.31145084 0.45121145 0.5945661 0.6518167 0.6702724 0.6339803 0.2805623 -0.096629776 -0.007454589 0.11928258 0.1291285 0.26063675 0.36014676 0.6631218 0.61453056 0.49288273 0.04869645 0.23709811 0.22582269 0.5057219 0.49539125 0.56414354 0.57584095 0.5685125 0.31333858 0.3555034 0.4103675 0.4852893 0.37081712 0.4900486 0.36110026 0.20382027 0.34976345 0.47033596 0.40068686 -0.11230713 0.24003041 0.19316101 0.20680837 0.28270692 0.2728266 0.4328634 0.47280443 0.27303866 0.28391665 0.24290536 0.42213452 0.52192104 0.5685286 0.31665805 0.34433675 0.41373828 0.4754286 0.62967944 0.34445792 0.33569607 0.56120646 0.7045907 0.33443987 0.36974603 0.41923502 0.65460217 0.7368305 0.46828115 0.57252103 0.7622182 0.8001278 0.7613344 0.7645798 0.8245189 0.81151575 0.7310178 0.7724729 0.7722031 0.784261 0.5323956 0.5132488 0.45899034 0.36797407 0.50723463 0.5070003 0.45195156 0.35333017 0.27985 0.29008463 0.24782237 0.3798135 0.4184608 0.40501624 0.3005997 0.15000968 0.22188778 0.12660918 0.17612007 0.15243164 0.0703835 0.051057544 0.012853464 0.01554713 0.059819266 0.026944809 0.3659552 0.5117552 0.52551854 0.62387747 0.07542863 0.015433028 0.024087116 -0.09624219 0.019006284 0.08048 0.36258793 0.6338615 0.5954971 0.55992454 0.18949464 0.056323826 -0.13286528 -0.04823819 0.5955421 0.5416868 0.23697679 0.51273304 0.45644617 0.3515549 0.44425094 0.42315203 0.41621664 0.25001737 0.16857332 0.0071377074 0.15679836 0.30893418 0.37403905 0.30075434 0.24545486 0.29938027 -0.058707897 0.2666286 0.14341025 -0.27134532 0.28821173 0.27933964 0.22764406 0.13429075 0.4097505 0.4357785 0.5030193 0.5388708 0.3672788 -0.05443602 0.24289533 0.2837044 0.29207838 0.20935263 -0.044286184 -0.070843905 0.30225757 0.5877189 0.48536327 0.48899418 0.37643063 0.2530352 0.25015736 0.24528675 -0.14587785 0.10261515 0.61444175 0.5823729 0.63342094 0.5803917 0.486759 0.24168536 0.46066582 0.306467 0.3920514 0.38454056 0.5909208 0.6041984 0.70904875 0.71581334 0.6827872 0.5907724 0.27968708 0.12117341 0.52087814 0.5202655 0.5904254 0.6362817 0.6607182 0.8115753 0.83546436 0.77950203 0.54399383 0.71862733 0.48245353 0.5866 0.6471581 0.7066897 0.8598275 0.702418 0.6627711 0.5689802 0.6744789 0.53846884 0.50594175 0.41458297 0.32658115 0.5302606 0.5341247 0.5177241 0.42939115 0.24820618 0.25727826 0.29801172 0.3265941 0.3324139 0.44053772 0.4535576 0.3050332 0.33802056 0.29106635 0.26281613 0.2218556 0.34004384 0.15807678 0.18354681 0.16966012 0.06753568 0.16441959 0.08045771 0.32806268 0.48588476 0.31131512 0.2856361 0.11690211 0.5297871 0.47090614 0.32287714 0.2851256 0.51888007 0.31468675 0.27185863 0.41715407 0.23463309 0.22166353 0.35585248 0.11643581 -0.046502464 -0.12371445 0.05526579 0.091701224 0.27031025 -0.04265031 0.06983047 0.06451659 0.05070558 -0.061758358 -0.14237124 0.041705884 -0.074921265 -0.12090199 -0.04379917 -0.1512187 -0.1518767 0.22990663 -0.03617838 -0.08909203 0.3869994 0.29848891 0.25210232 0.2722506 0.26400205 -0.2591208 -0.28669694 -0.29708794 -0.22306353 -0.203303 0.4815149 0.51936525 0.35422266 0.36596027 0.31549755 0.14051066 -0.20173422 -0.270514 -0.2451995 0.12317911 0.5852458 0.46188247 0.36987102 0.25895944 -0.09805184 -0.1623661 0.18919109 0.56943476 0.5482224 0.29628602 0.13549553 0.29275784 0.31630588 0.534466 0.71537566 0.21875635 0.035634026 0.12564507 0.07488726 -0.019879274 0.40758598 0.38613623 0.4638722 0.53191906 0.7523104 0.84850585 0.43260175 -0.14071342 0.42786393 0.5078987 0.52043927 0.49719647 0.09712873 0.30818787 0.38856396 0.5055517 0.8822346 0.87194866 0.7779567 0.67702013 0.49000043 0.47219568 0.5213175 0.47675833 0.41237938 0.5428267 0.536357 0.44869357 0.37766206 0.21069233 0.21629328 0.26831836 0.30334353 0.32405347 0.47083592 0.5030979 0.27697855 0.3152479 0.3329536 0.33816695 0.7247952 0.38506252 0.29185858 0.29510793 0.69480157 0.7383442 0.7647876 0.7719512 0.21547471 0.17730767 0.6521544 0.7330371 0.76525635 0.76923764 0.19564012 0.14962901 0.3690631 0.5786064 0.7065674 0.7235978 0.729614 0.3725727 0.2669775 0.4323366 0.3218474 0.52712244 0.3705905 0.35880175 0.34354946 0.3438961 0.31742948 0.2353513 0.23104438 0.02276177 0.002082143 0.0150439665 -0.015932478 -0.32523495 -0.032277375 0.2177681 -0.04298012 -0.0425962 -0.065585494 0.104140885 0.3481174 0.27224633 0.22773594 0.095147684 0.3149535 0.25881156 0.51574725 0.30605745 0.54006034 0.31530726 0.39486963 0.48116475 0.43157855 0.0152118355 0.14300527 0.46104833 0.6509267 0.07586789 0.018698059 -0.046668276 -0.09429075 -0.10003941 -0.13461182 0.029224262 0.4605825 0.76028824 0.83388174 0.13426003 0.04561536 0.08514538 0.05330046 0.27111667 -0.16917488 0.25090373 0.10263728 0.04733086 0.17353064 0.86441374 0.85759056 0.7111708 0.63020223 0.33784539 0.06666258 0.2578022 0.39695632 0.3642426 0.2021271 0.37887838 0.3931731 0.41962427 0.3476001 0.82960445 0.76607263 0.35246724 0.3819625 0.45460063 0.44710982 0.42528158 0.35560822 0.51344645 0.45984817 0.32955086 0.46117622 0.53610086 0.1806744 0.14632942 0.26760238 0.28898337 0.31024817 0.37964547 0.3338548 0.3355369 0.33611816 0.3182639 0.6320075 0.6955334 0.72435176 0.7298887 0.28899723 0.29037535 0.60831225 0.75215036 0.75263345 0.07931322 0.09004446 0.28418273 0.7506205 0.33831352 -0.061144784 0.6879556 0.44785577 0.37720692 0.59846926 0.5716052 0.4351544 0.3997913 0.3672951 -0.020202905 0.23892358 -0.028857812 0.103213646 0.09652499 0.098308645 0.2976504 0.33408216 0.41820064 0.43531716 0.33509243 0.29250878 0.07773068 0.3768332 0.42838085 0.51672775 0.42115924 0.2863515 0.63269687 0.51960886 0.39799535 0.37570924 0.61385345 0.42900196 0.49314076 0.30726245 0.4308164 0.38765448 0.6407828 0.5259252 -0.20248872 -0.09452355 0.2607811 0.31927082 0.6998235 0.7911655 -0.1843239 0.13024518 0.012161098 0.030385394 0.18143232 0.21696341 0.81823725 0.76438904 0.6385535 0.3127313 0.32857236 0.31422403 0.23238686 0.3121851 0.3219979 0.26227412 0.16298781 0.7964587 0.72374046 0.39380994 0.41558668 0.44694352 0.46101463 0.4765573 0.42935842 0.39783275 0.31227443 0.3487116 0.32323095 0.44577426 0.47326532 0.5023696 0.48836213 0.42059082 0.34692234 0.13051793 0.50002444 0.11101097 0.16053602 0.27229488 0.61556745 0.66097224 0.6708536 0.31205073 0.29380864 0.32640216 0.31673333 0.30157244 0.48108703 0.588423 0.68173254 0.68611926 0.6933246 0.08644366 0.28903598 0.23071729 0.30490735 0.42259976 0.70041776 0.04371863 0.7164711 0.3958528 0.35757422 0.21519701 0.6545153 0.47925463 0.5568344 0.4783015 0.48066407 0.2941208 0.46913764 0.40396664 0.17269269 0.22404861 0.19408798 0.28503942 -0.06813359 0.35265073 0.38859725 0.3005818 0.16042033 0.43771452 0.51140124 0.38899007 0.34691843 0.46924537 0.656739 0.56109434 0.39847606 0.6944438 0.705817 0.6100705 0.33755964 0.6852323 0.6222997 0.3715054 0.2432906 0.17800222 0.17198393 0.20477962 0.25653356 0.6440879 0.5180174 -0.10040942 0.18787262 0.09578923 0.62613225 0.51911175 0.13837491 0.35727894 0.21616799 0.25662822 0.20186426 0.28850436 0.35593322 0.44154298 0.3684913 0.30112687 0.3014468 0.2551948 0.2239779 0.46216786 0.4952163 0.51129293 0.474953 0.46263883 0.46244556 0.38359565 -0.020520993 0.53351694 0.48612162 0.13765109 0.14104265 0.115229525 0.01890755 0.04059832 0.4974382 -0.004396977 -0.048298635 0.49274766 0.60807747 0.6322392 0.6343938 0.42051166 0.06564517 0.25077865 0.30202034 0.2855286 0.27545688 0.25160974 0.44725275 0.63483715 0.6286549 -0.10775329 0.61506844 -0.18875156 0.5381526 0.39913106 0.1893515 0.49298602 0.43163234 0.46057564 0.15119693 0.10180102 0.21006197 0.38781452 0.2339884 0.2378374 0.22841334 0.4063796 0.29871643 0.43002978 0.65445745 0.16815671 0.3130261 0.70304286 0.6927998 0.70795274 0.7091203 -0.019307993 0.6683943 0.6091543 0.4644491 0.38726106 0.16594073 0.1418389 0.12312576 0.17409453 0.05166592 0.013193034 0.05367682 0.12834607 0.2818243 0.15095425 0.11456506 0.33599156 0.40087503 0.2652843 0.2667691 0.21733388 0.17501143 0.39067644 0.43347928 0.47222596 0.48044774 0.40970188 0.4007615 0.31140903 0.3287438 0.3424001 0.4936215 0.48320502 0.44815913 0.28040397 -0.011149637 -0.052397847 0.5305401 0.5210191 -0.038434945 -0.014357056 0.54788023 -0.06732775 -0.10867216 0.43049654 0.5434132 0.5687256 0.49115545 0.39771992 0.21558514 0.21894035 0.53163517 0.12606822 -0.031688273 0.018405087 -0.23235932 -0.14274397 0.45540863 0.4663777 -0.35654682 0.42847973 0.18472373 -0.23237815 0.37755466 0.30460533 0.3628672 -0.05733852 -0.246978 0.028263807 -0.25612235 0.2209504 0.299554 0.107319154 0.138449 0.3684416 0.2810233 0.34928662 0.59339136 0.11654563 0.2474465 0.68065256 0.63672507 -0.23148218 0.69362235 0.6639112 -0.24015087 0.61745584 0.5533352 0.25876242 0.45473558 0.39227375 0.0052468777 -0.07665529 0.05665093 -0.004646465 0.07984491 0.12507764 0.19140495 0.0717435 0.103483275 0.27970886 0.3479241 0.36786494 0.26559183 0.21975616 0.27793717 0.24754876 0.19446675 0.18364596 0.20781945 0.14657116 0.3029166 0.27783826 0.3068418 0.3280449 0.19335996 0.25677764 0.3122722 0.24840438 0.16962078 0.2286477 0.3137169 0.3338344 0.35650653 0.35421073 0.3373408 0.3611037 0.41426563 0.3901601 0.43890852 0.47448555 0.65160096 0.5995668 0.65064985 0.63543844 0.56372106 0.47796282 0.56204975 0.44945914 0.37367153 0.39895135 0.4173954 0.35065094 0.43284395 0.16197222 0.30653352 0.29286984 0.48000783 0.44937545 0.065626286 0.05279939 0.59944344 0.49428025 0.51174414 -0.05809498 0.3989272 0.40004736 0.3911417 0.53516173 -0.06731847 0.23423883 0.25705275 0.21565971 0.16737834 0.36720818 0.4041999 -0.18386735 -0.33759227 -0.08742496 0.025998205 -0.1524229 0.09725549 0.3355956 0.38204813 0.10801406 0.26833504 -0.040366746 0.2850455 0.35381237 0.25921422 0.1741779 0.053977728 0.26441842 0.29688781 0.108578466 0.102018714 0.22216491 0.05466781 -0.02948539 -0.09144921 0.1549782 -0.14334469 -0.27452242 0.046352353 -0.031336717 -0.28398234 0.1739421 0.23033464 0.10185501 0.03695812 0.271548 0.17709948 0.14202201 0.21979451 0.1589539 0.01476663 -0.2798972 0.6000654 0.41690803 0.2503414 0.28757438 0.46421087 0.31281838 0.038853634 0.36501846 0.49797237 0.26484954 0.03268627 0.4945343 -0.10604073 -0.055300303 0.37194413 0.47586244 0.04647603 0.21544674 0.27819702 0.18867357 0.086765654 0.19490828 0.19932632 0.23799267 0.2575408 0.33415574 0.35264185 0.05186971 0.13807699 -0.41398886 0.15889998 0.33001006 0.23299533 0.06558481 0.11889206 0.15456419 0.011091275 0.2004696 0.31108135 0.15284929 0.20769888 0.36545178 0.27540672 0.35076028 0.49717703 0.4801352 0.25983474 0.37334424 0.44571337 0.504786 0.55886346 0.47576886 0.54552376 0.58251 0.6774653 0.66805524 0.617936 0.5559721 0.50206476 0.6309775 0.54287374 0.5080492 0.50160086 0.29826605 0.5459877 0.43983907 0.4601895 0.45229807 0.20885372 0.32828763 0.67129076 0.6361109 0.55366707 0.38406903 0.22567432 0.66280067 0.64662826 0.59588444 0.50628877 0.38661087 0.4357276 0.5810044 0.491085 0.4262415 0.33797434 0.19792157 -0.14606394 -0.3006359 -0.030547477 -0.07231727 0.29425338 0.25774756 0.5014041 0.29092264 0.28367195 0.4956363 0.45409596 0.39042747 0.30931085 0.22162688 0.5536548 0.53211933 0.4094376 0.33157805 0.2624917 0.5486351 0.55087996 0.48952842 0.4282254 0.12883289 0.112122916 0.4827109 0.4281397 0.35856745 0.26938403 0.07829216 0.027416334 0.0068062693 -0.21561751 -0.08141619 -0.17958716 -0.15608318 -0.16861103 0.053622454 -0.1150432 0.07670285 0.14646709 0.092732444 0.13438064 0.10211519 0.1611392 -0.038001202 0.20298515 -0.11416637 -0.064530134 0.17683363 -0.050031886 0.3535924 -0.2701195 0.5204637 -0.39277658 0.5157162 0.53584504 -0.20759305 0.37868053 0.46371174 0.26663303 0.35869083 0.10189853 0.06886031 0.27747196 0.26215243 0.33059984 0.22927728 0.08000935 0.13718829 0.13376002 -0.069216736 -0.091864444 0.05935274 0.13918486 -0.037854467 0.19114594 0.10960832 -0.011557408 0.08961187 0.34045923 0.2429696 0.068537205 0.08871637 0.45165938 0.18394208 0.2861758 0.5831461 0.6084724 0.29155424 0.38000983 0.5433093 0.6009006 0.64914453 0.6494538 0.48435596 0.58113575 0.6664914 0.66518086 0.5488249 0.649582 0.69591856 0.6398895 0.55887055 0.43808535 0.5384833 0.52323675 0.16650516 0.48227587 0.5854309 0.5921478 0.14731313 0.36571488 0.63273704 0.64365816 0.61616164 0.52848244 0.42439044 0.14034599 0.1588356 0.5939026 0.35680926 0.21830851 -0.20688352 -0.20981677 0.07969479 0.29180402 0.26837447 0.041966002 0.12175727 0.2421851 0.43014035 0.40512574 0.27234727 0.18494576 0.49456102 0.5107038 0.5097626 0.044593006 0.099418655 0.52534705 0.529204 -0.0331192 0.04992771 0.5262417 -0.07916334 0.46448052 -0.15439859 0.3210351 0.30201232 0.053919744 0.13387595 0.09334332 0.00654337 0.16078629 0.010708645 0.086273484 -0.027631462 0.15870485 -0.015620008 0.24815267 0.25879115 0.22821248 -0.091943175 0.2522778 0.26664272 0.22417814 0.21696319 -0.120325044 0.4216654 -0.33528203 -0.5006953 0.47434396 0.057427738 -0.48112598 0.48506898 0.30654985 0.20340787 -0.28695485 -0.4494933 0.13118713 0.43796605 0.51574135 0.47654086 0.36137456 0.32683933 0.22922887 -0.35175875 0.015281171 0.22661042 0.30538628 0.21035713 0.27489704 0.53218055 0.52674794 0.49248976 0.43021137 0.07546291 0.04543215 0.2329447 0.27444723 0.3046705 0.536627 0.48395038 0.09126023 -0.31393588 0.040685743 -0.053210095 0.09435335 0.06936163 0.32614145 0.094727 0.17974761 0.22064096 0.4021577 0.3788746 0.13335267 0.51466095 0.5087436 0.47321093 0.3178993 0.6026498 0.5035145 0.49772903 0.18201587 0.2796281 0.6745633 0.674587 0.4283877 0.50079924 0.64722574 0.7311669 0.70322543 0.69687 0.6354414 0.68544483 0.7684853 0.4515527 0.54960036 0.5887817 0.5238135 0.50932837 0.38888997 0.4885109 0.1660659 0.25745076 0.42709452 0.54650545 0.5107709 0.44334143 0.35303694 0.5246308 0.54102933 0.42148125 0.32376933 0.0033573788 0.08686648 -0.18802233 0.4421412 0.30306867 0.12600607 0.21458948 0.32244056 0.1098793 0.27342606 0.40147004 -0.020574033 0.39503795 0.40305853 0.3115221 0.12504019 0.20938584 0.42606896 0.4362684 0.41895977 0.022636581 -0.017984908 0.4669397 -0.060312785 0.441158 -0.09479237 -0.13120529 0.37052178 0.010851227 0.20463064 0.13530703 0.059590057 0.14906137 0.14553422 0.10331751 0.13971394 0.1908355 0.16486073 0.054888826 0.07271224 0.26753932 0.25287837 0.019939214 0.02997654 0.29364556 0.2822371 0.011203855 0.2814631 -0.073088534 0.29985213 0.22231168 0.3099138 0.30981636 0.43514127 0.28579056 0.26978812 0.077024296 -0.09307083 -0.28919366 0.4444334 -0.07343969 -0.24191986 0.3504397 0.40784007 0.46005443 0.43191135 0.43413448 0.24207358 0.17680672 0.36602813 0.54232633 0.5138136 0.45329702 -0.00013625622 -0.16591008 0.15368295 0.19754854 0.2604587 0.16849121 0.25408727 0.57920307 0.56651723 -0.020560786 -0.06597881 0.57479227 0.505985 0.3987372 0.26991463 0.08694695 -0.13905783 0.028009687 0.47484097 0.3564255 0.2469954 0.119813405 0.15576997 0.10040425 -0.026730448 0.028256886 0.035966568 0.15873909 0.17112912 0.14315753 0.08379716 0.1369478 0.057119057 0.16913268 0.09265707 0.123315446 0.22902273 0.3760079 0.39834762 0.5054419 0.6160789 0.5018903 0.5043457 0.4897639 0.16706851 0.28711048 0.6925614 0.66177714 0.49325585 0.48302895 0.42476082 0.5323845 0.72632647 0.7025589 0.5692806 0.7134546 0.8134047 0.8209261 0.7853106 0.38653302 0.4151468 0.4164264 0.44785056 0.33219272 0.39953613 0.43318206 0.031418476 0.38417327 0.3142116 0.42287576 0.42269096 -0.026596384 0.14866735 0.41315085 0.3175057 0.24949113 -0.15701361 -0.33107683 0.36379874 0.38646016 0.4949475 0.49529356 0.024154186 -0.056640875 -0.2974884 0.4660105 0.46969527 0.020555772 0.36795992 0.27016443 0.2050339 0.32197693 0.048727125 0.3599139 -0.052726895 0.33658075 -0.18303671 0.23077385 0.0133786425 0.19503596 0.0979919 0.0801757 0.008184172 0.114352345 0.3415683 0.36174673 0.07858941 0.38224095 0.44929263 0.23360193 0.17877224 0.07348054 0.44939232 0.4840297 0.2635637 0.031668298 0.4546997 0.4914614 0.2652532 -0.067652404 0.2486346 0.25255468 -0.06621326 0.26776418 0.2656733 0.30411583 0.33415484 0.39818743 0.27110097 0.36652547 0.25158718 0.22884396 0.29762477 0.43431547 -0.20667636 0.28763723 0.5319397 -0.15176281 0.34247723 0.47964793 0.56680727 -0.08851897 0.5114584 0.51968074 0.4589342 0.44101942 0.4710922 0.5233294 0.5684098 0.55872 0.5668534 0.5594556 0.45166564 0.0934185 0.02179584 0.113976076 0.1612307 0.020761214 0.13974233 0.08519536 0.11827074 0.27565646 0.44475037 0.37592056 0.6036193 0.5037778 0.49947733 0.38583896 0.2761629 0.68095964 0.49007595 0.4839629 0.4691643 0.3915794 0.5705226 0.7710265 0.69051015 0.78593564 0.8503838 0.83818996 0.80769324 0.20759507 0.22726816 0.3123866 0.2676367 -0.09451689 0.21438472 0.3346197 0.3096129 0.27705872 -0.27908725 0.20076771 0.3385827 0.275012 0.06743884 0.3207803 0.46383983 0.53103024 0.22002313 0.04764039 -0.21577516 -0.4001847 -0.30065715 0.53627896 0.5443213 0.16604657 0.11694059 0.50512826 0.45620194 0.33583772 0.22806028 0.17033553 0.23167925 0.20439968 -0.05589933 0.19909886 -0.24879134 -0.21950288 0.107127815 -0.19188046 -0.16608907 0.0615879 -0.05887918 -0.09741265 0.12513067 0.2152173 0.28296074 -0.09746327 -0.16727115 0.04293681 0.2529291 0.30952173 0.3428668 0.023548078 0.16456252 0.22272626 0.29662406 0.37921268 0.40062618 0.40764123 0.07865202 0.4842596 0.45362967 0.1797859 0.32951567 0.5238787 0.53071105 0.5187455 0.21117216 -0.06405272 0.063817576 0.46479523 0.5363855 0.5836903 0.19399956 -0.04550809 0.5521336 0.18889329 -0.015296109 0.23194645 0.21981506 0.30215642 0.1619726 0.26971507 0.2391994 0.22332989 0.2291246 0.40509596 -0.21668485 -0.22761768 0.26763642 0.3828278 0.435853 0.481165 0.46241596 -0.21077895 0.3850028 0.5347576 0.5677917 0.49873018 0.52102315 -0.15724842 0.42432636 0.49542427 0.55807996 0.59004843 0.5056097 0.44884542 0.54819536 0.5688863 0.57951385 0.5632889 0.5741536 0.6060153 0.43381846 -0.064109445 -0.17068535 0.5840572 0.0884798 -0.057