# vtk DataFile Version 2.0
Really cool data
ASCII
DATASET POLYDATA
POINTS 8816 float
-21.54438 27.477272 18.069382
-21.54137 27.461176 18.438292
-21.528547 28.189543 18.518099
-20.679848 23.91924 13.967596
-20.735273 23.826248 14.462743
-20.742674 23.963272 14.933329
-20.717546 24.38793 13.966
-20.873209 24.502707 14.497255
-20.808311 24.60194 15.303461
-20.716932 24.944582 16.099613
-20.657045 25.216488 14.166279
-20.811224 25.425806 14.5916395
-20.878645 25.418224 15.436366
-20.753876 25.405596 16.090347
-20.911043 26.219946 18.370144
-20.680904 26.2903 14.816244
-20.689514 26.339401 15.195543
-20.675522 26.64584 16.758976
-21.303673 26.82228 17.913998
-21.308329 26.765007 18.436886
-21.044483 26.871983 19.250467
-20.77505 26.95162 19.678684
-20.588705 26.750721 15.072666
-21.423555 27.441565 17.825996
-21.483238 27.295502 18.721354
-21.289852 27.547607 19.265593
-20.861433 27.657202 19.796984
-20.90673 28.30952 17.087156
-21.420048 28.340876 17.941513
-21.46678 28.666983 18.491495
-21.282051 28.426556 19.263227
-20.918556 28.397373 19.830906
-20.843437 28.923208 17.16973
-21.112722 29.390913 17.820124
-21.27997 29.389774 18.426188
-21.049833 29.308125 19.290863
-20.753117 29.123077 19.802637
-20.875565 29.882221 17.952192
-20.959835 29.931547 18.415634
-20.86037 29.843063 19.032854
-20.120707 23.333395 14.006152
-20.229576 23.306385 14.410971
-20.035482 23.329596 15.123643
-20.04348 24.019724 13.417834
-20.369522 23.657082 13.862478
-20.531372 23.530104 14.465574
-20.233374 23.68051 15.337651
-20.10094 24.11309 16.19847
-20.018627 24.47832 13.362853
-20.420395 24.353199 13.611372
-20.572544 24.391325 15.662535
-20.248455 24.423656 16.348583
-20.388401 25.140814 13.756883
-20.372253 26.211622 19.022287
-20.280695 26.056465 14.080642
-20.559391 26.339672 14.579157
-20.396288 26.486216 19.45008
-20.333542 26.909716 19.883078
-19.910034 26.722681 14.268708
-20.167263 26.94633 14.693963
-20.464039 27.786201 16.510233
-20.22396 27.609983 20.339748
-19.912243 27.816833 20.72098
-20.585691 28.109528 20.123423
-19.902315 28.651243 20.651201
-19.774698 28.777178 16.158049
-19.917206 29.473902 17.001328
-20.61438 29.66431 19.58962
-20.156092 29.361343 20.12371
-20.336372 29.826061 17.365273
-20.416862 30.098196 17.86778
-20.370108 30.278992 18.599867
-20.471472 29.99633 19.195559
-19.947847 29.790934 19.973448
-19.708517 23.308645 13.840521
-19.606232 23.133102 14.497529
-19.511356 23.286234 15.17956
-19.63908 23.933853 13.32643
-19.442059 23.51081 13.599341
-19.551176 23.51324 15.638628
-19.3069 23.785015 16.260845
-19.305756 24.20092 16.81835
-19.55053 24.396873 13.237304
-18.998404 24.602608 17.371813
-19.469793 25.44666 13.384429
-19.471796 25.67023 13.509924
-19.781393 25.996235 18.131935
-18.933138 25.781841 18.818531
-19.37011 26.21554 13.696883
-19.375648 26.601835 20.185272
-19.179472 26.921417 20.755325
-18.919342 27.351942 14.226066
-19.14282 27.648867 14.615785
-19.596651 28.382374 15.705757
-19.479605 28.470984 20.894758
-19.231554 29.034891 15.879797
-19.56467 29.27216 20.595638
-18.978918 29.573246 20.987062
-19.40067 30.351456 18.467762
-19.757689 29.99062 19.52333
-19.168646 29.937468 20.265097
-17.660597 21.247705 24.959053
-17.61489 21.223795 25.24796
-17.69664 21.240824 25.94192
-17.57369 21.942993 23.162567
-17.639217 21.737759 23.626623
-17.828726 21.792229 24.501518
-17.93512 21.682676 25.480341
-17.795315 21.663044 26.333204
-18.908676 23.3228 14.003654
-19.025114 23.195086 14.396237
-18.75422 23.223904 15.229607
-18.35385 23.43752 16.03494
-17.747782 22.406973 23.694088
-17.94675 22.395267 24.583773
-18.116013 22.582048 25.640453
-17.897594 22.549791 26.370232
-17.655682 22.36087 26.78038
-18.831398 23.603052 13.63962
-18.051022 23.584192 15.812937
-18.31688 23.721476 16.450037
-17.662169 22.946291 23.85237
-17.857904 23.34514 24.793186
-17.997105 23.290882 25.581089
-17.85102 23.458956 26.026945
-18.450378 24.509623 13.252048
-18.058964 24.697746 17.492384
-18.413269 25.160934 17.791737
-17.665243 23.894545 24.962244
-17.720013 23.852926 25.95018
-18.522625 25.384777 13.313839
-18.548702 25.863392 18.558147
-18.53903 25.87293 19.147545
-18.562172 26.371906 20.207228
-18.19158 26.313116 13.378628
-18.44246 26.546026 13.648083
-18.639666 26.571793 20.502522
-18.299185 26.934835 21.096428
-17.601032 26.87785 24.806124
-17.693928 26.6543 25.60127
-17.575846 26.822258 26.268257
-17.942059 26.990463 13.6650305
-18.428862 27.638998 21.280645
-17.771864 27.504131 24.610188
-17.755888 27.431608 25.241404
-17.648035 27.4106 26.052444
-18.667664 27.958801 14.353392
-18.60379 28.234108 14.615114
-18.149263 28.291462 21.495972
-17.648506 28.474052 22.912888
-17.944271 28.66179 23.521858
-18.04207 28.597654 24.659536
-18.009933 28.562407 25.259506
-17.690052 28.128275 26.166813
-18.190142 29.588417 15.65706
-18.351307 29.741768 21.718904
-17.876852 29.182718 23.488401
-18.06888 29.735052 24.420439
-18.001978 29.368933 25.322535
-17.792704 29.65077 26.304394
-17.606028 29.976023 26.83971
-17.943684 30.360151 17.946218
-18.09351 30.41093 19.408758
-17.903458 30.305744 20.977894
-18.105217 30.158203 22.572916
-17.963581 30.304699 23.572159
-17.917255 30.283882 24.718267
-18.020792 30.567936 25.720644
-17.948761 30.609753 26.283087
-17.621218 32.005905 9.7098875
-17.724678 31.911009 10.669872
-17.791569 32.131306 11.3480015
-17.817347 30.742167 21.894741
-17.636728 31.002996 22.779903
-17.624346 30.973103 24.05056
-17.859867 30.975077 25.012812
-17.901997 31.238749 25.623482
-17.83355 31.388678 26.186247
-17.749216 30.979515 26.79162
-17.787294 32.557415 9.657851
-18.068285 32.54239 10.514823
-18.016811 32.734882 11.277712
-17.630783 32.537983 11.955953
-17.862398 33.461964 9.913926
-18.092413 33.395412 10.517854
-18.013433 33.438553 11.42885
-17.827137 33.381016 11.834351
-17.72652 33.868504 9.967978
-17.859804 34.00617 10.525679
-17.846754 33.969524 11.369248
-17.541391 36.862076 24.391369
-17.523981 37.087955 24.614393
-16.913532 21.143501 22.968044
-17.037893 20.862629 23.627422
-17.32064 20.87779 24.681515
-17.398634 20.883736 25.551987
-17.522419 21.085146 26.207962
-16.793821 20.789042 27.037102
-17.243917 21.874687 22.97168
-17.588427 21.405037 26.448643
-17.144125 21.611248 27.230104
-16.587374 21.400557 28.117838
-17.20318 23.303715 14.387875
-17.417627 23.356668 15.224146
-17.210003 22.40889 22.868332
-17.47817 22.356092 26.899149
-16.74674 22.016817 27.842669
-16.750727 23.562073 22.967985
-17.420208 23.52951 26.617338
-17.376059 23.176617 26.899584
-17.914917 24.519562 13.431592
-17.275248 25.211433 18.444427
-16.96954 23.94212 23.758265
-16.965506 24.468817 24.402723
-17.49189 24.242182 25.19332
-17.120249 24.326056 26.336233
-17.228605 23.81532 26.754717
-17.255373 25.14186 13.438873
-17.687092 26.215288 20.051071
-17.385612 25.844418 25.073092
-17.235695 25.942812 26.353165
-17.430698 26.307697 13.279438
-17.818993 26.567272 20.462412
-17.384836 26.404297 24.578749
-17.267954 26.562222 26.511097
-17.038649 26.63574 26.758743
-17.847563 26.94474 13.579164
-17.13417 27.698303 23.49213
-17.376696 27.493696 26.496622
-17.11958 27.821486 26.978601
-16.8617 28.709835 14.426361
-17.036613 28.29338 27.18344
-17.483255 29.509695 14.94779
-17.538534 29.2004 26.499731
-17.455137 29.429014 26.925228
-16.681553 29.616114 27.830755
-16.578358 30.173843 30.432484
-16.963602 31.180017 11.2448225
-16.763878 30.182009 14.668888
-17.46565 30.422602 16.388083
-17.208296 30.422716 17.33669
-17.591892 30.216158 27.012093
-16.749575 30.88321 30.481606
-16.713875 30.520737 32.615467
-16.915644 30.771593 33.36471
-16.789026 30.831772 33.978638
-16.91618 31.944267 9.132052
-17.537493 31.863716 9.712996
-17.480967 31.5828 10.360498
-17.258516 31.773054 11.614991
-17.369984 32.135746 12.310202
-16.835361 31.238384 14.961192
-17.138008 30.884443 15.387855
-17.172506 31.071392 16.086067
-16.82405 30.707857 18.605982
-16.804195 31.23431 20.97458
-16.786074 31.590166 21.785675
-17.297508 31.381647 23.743048
-17.335443 31.475185 27.324501
-16.991528 31.82188 29.555431
-16.99455 31.826254 30.301546
-16.82335 31.257448 31.229454
-17.133024 31.548096 32.73198
-17.22198 31.585913 33.389503
-16.977127 31.515722 34.082737
-17.305225 32.69951 9.168032
-17.580063 32.556942 9.440691
-17.231998 32.64682 12.37387
-17.0178 32.76351 12.885451
-16.682037 32.48703 23.696716
-17.31907 32.144127 24.900253
-17.217613 32.39076 26.100237
-16.902748 32.30107 27.341833
-16.831964 32.479816 28.616863
-16.872704 32.36248 29.489365
-16.891855 32.372406 30.533653
-17.069736 32.352623 32.760406
-17.105316 32.278027 33.499603
-16.977821 32.17236 34.032585
-17.193752 33.323284 9.175675
-17.4101 33.722294 9.493499
-16.906748 33.611828 12.82696
-16.601175 33.29332 23.944466
-17.084091 33.68395 25.06369
-16.842728 33.66854 26.397902
-16.540684 33.415386 27.853024
-16.821283 32.87766 29.089966
-16.590237 33.043827 30.03204
-16.671457 33.411522 33.01042
-16.80366 32.977627 33.54231
-16.883877 33.983948 9.264181
-17.207779 34.204037 9.754868
-17.514225 34.335464 10.502967
-17.411503 34.343002 11.420424
-16.545425 34.233253 13.6679735
-16.684715 34.41144 14.972838
-16.596294 34.61129 15.3783865
-16.721853 34.670013 23.936987
-17.08016 34.685966 24.759178
-17.292694 34.881336 25.131868
-17.03177 34.692802 26.244541
-16.926271 34.705166 10.369595
-16.916904 34.61813 11.59524
-16.596546 35.007954 13.903198
-16.604166 35.394894 14.646568
-16.631462 35.32002 15.352235
-16.521748 35.48721 16.039705
-16.66558 35.50816 23.112713
-17.300112 35.519665 24.739922
-17.417511 35.951267 25.54629
-17.08956 35.466637 26.187918
-16.747889 36.68372 23.00995
-17.18005 36.508724 23.65864
-17.430077 36.711926 24.380007
-17.362085 36.55614 25.278793
-16.917315 36.719334 26.161709
-16.753563 37.189304 23.198273
-17.215458 37.342567 23.84262
-17.365496 37.42781 24.565353
-17.249905 37.426876 25.272076
-16.90371 37.318314 26.008884
-16.893688 37.935795 23.797453
-17.02378 37.99054 24.532698
-16.912788 38.009815 25.33616
-15.623531 18.060888 26.483923
-15.6385355 18.087667 27.303013
[...]
POINT_DATA 8816
SCALARS features_00 float 1
LOOKUP_TABLE default
0.6346173 0.6645177 0.7052049 0.88527596 0.86979365 0.82786226 0.8601997 0.833076 0.77457607 0.65795827 0.7589067 0.7193525 0.6682807 0.58977485 0.59639955 0.562379 0.5231423 0.42724168 0.5872891 0.632388 0.656405 0.62489307 0.4412064 0.60245097 0.670948 0.68044984 0.6394233 0.52246517 0.6764141 0.7353108 0.70212424 0.63164675 0.55985916 0.70812976 0.74826735 0.67273974 0.59217066 0.71535957 0.72586393 0.67313856 0.87514937 0.85952795 0.7607927 0.8613511 0.88788164 0.86885214 0.75585926 0.6353873 0.8267559 0.85934246 0.747352 0.6259327 0.7646064 0.5350766 0.5943107 0.5592104 0.5535659 0.5680516 0.45483494 0.41113138 0.34083506 0.5711519 0.54218125 0.59426016 0.49612045 0.24319991 0.4145738 0.59073704 0.5101221 0.5767146 0.6683 0.6551529 0.6163628 0.49026954 0.85722405 0.79879284 0.6851009 0.8355295 0.83876956 0.6164011 0.4895749 0.38917404 0.7864312 0.19106492 0.60454726 0.56174886 0.3412746 0.19020101 0.45534945 0.41153237 0.4265299 0.3076495 0.28183326 0.20862377 0.47702494 0.15259345 0.42677814 0.30611154 0.5057255 0.4975562 0.353742 0.5057116 0.4951161 0.48418078 0.56943345 0.56254697 0.5617783 0.53852713 0.50297445 0.7573302 0.731465 0.5590672 0.37168768 0.585814 0.5880518 0.5723357 0.5336452 0.49910846 0.7607517 0.35102823 0.28805354 0.5728135 0.56092393 0.548322 0.51831317 0.570574 0.041756712 0.04040481 0.49394077 0.4785064 0.432684 0.11541251 0.16051038 0.2588119 0.30594853 0.31417894 0.29885638 0.3097514 0.28446054 0.3198009 0.31207904 0.22318292 0.3951248 0.25894523 0.30109453 0.30947417 0.20563929 0.15519634 0.32298478 0.11254212 0.2144505 0.24089438 0.26231402 0.27733445 0.12383035 0.101816446 0.23685805 0.2624358 0.28055334 0.2672488 0.23166019 0.036211696 0.124177285 0.059489295 0.11479345 0.19146596 0.26551968 0.2989146 0.2973336 0.736524 0.67420644 0.61187273 0.04484868 0.06406738 0.15506545 0.24632093 0.2676194 0.27498353 0.2817365 0.7587748 0.76629114 0.6784748 0.5548837 0.75246704 0.78977865 0.6883571 0.59355867 0.7200075 0.7309427 0.682568 0.52679324 0.54461557 0.4881211 0.4669827 0.45658407 0.43546283 0.45204112 0.37469533 0.5547279 0.4731248 0.4416849 0.42254734 0.32205248 0.303683 0.5578423 0.48420614 0.43316665 0.44988108 0.45990592 0.45831797 0.43126386 -0.044920933 0.43224794 0.30948034 0.41871953 0.32650536 0.40053356 0.24716534 0.12347762 0.2286208 0.27193958 0.23113714 0.18785281 0.24512835 0.30110347 0.29049283 0.21520612 0.20264314 0.29962125 0.27723375 -0.008987084 0.2186507 0.0872328 0.23119698 0.18392184 0.03488934 0.22335887 0.4424812 0.037062906 0.020961955 -0.07279572 0.23232481 0.27371377 0.41309756 0.5105674 0.5002222 0.63277864 0.72085315 0.6551193 0.50639415 0.47420484 0.005524203 0.033914935 -0.016751058 -0.026908394 -0.037021592 -0.032372035 0.066426754 0.20179373 0.18476018 0.22451314 0.3205229 0.46880305 0.5128699 0.49063596 0.6975694 0.737571 0.4754746 0.3544927 -0.09474167 0.1125432 0.15448888 0.043264046 0.038216148 0.110744454 0.16000089 0.35427612 0.45772213 0.47360736 0.67782474 0.69327855 0.3261401 -0.03152033 0.10531907 0.030588076 -0.038896903 0.040248603 0.05056313 0.21167193 0.36519223 0.62918544 0.65493584 0.6644242 0.60236907 0.1834727 0.22237279 0.26067752 0.18317123 0.24488646 0.29254726 0.16708 0.5750363 0.47979686 0.22645521 0.28140128 0.3212139 0.3773751 0.26790103 0.37797862 0.40480196 0.2664085 0.42723018 0.46042696 0.5107943 0.4712302 0.37753606 0.4900379 0.55764806 0.56723356 0.53401244 0.45442408 0.5716815 0.57324994 0.52735674 0.34479356 0.4112067 0.33279735 0.39325613 0.2201345 0.30619693 0.23584409 0.20747642 0.3171664 0.3557263 0.38935393 0.40909946 0.42304152 0.25603503 0.46532607 0.46554774 0.44013512 0.43859452 0.23504508 0.19484541 0.14456321 0.18241191 0.45841855 0.4409967 0.44812864 0.18934691 0.0738373 -0.03996943 0.43005162 0.36127955 0.3689779 0.58922076 0.118516535 -0.08336821 0.3712241 0.27102202 0.21042895 0.7098549 0.60208136 0.5358317 0.45596835 0.14885965 -0.07225023 0.006285559 0.20296346 0.7870223 0.77672625 0.70705026 0.5776829 0.4699872 0.14539061 0.023260793 0.06908077 0.2487905 0.75404835 0.7595935 0.7493814 0.63604367 0.507789 0.27669564 -0.20236306 0.2630955 0.18739268 0.7215029 0.7044251 0.5761975 -0.38907784 0.18155812 0.20162955 0.3953985 0.46043247 0.6295649 -0.05681625 0.04230986 0.14368111 0.2137044 0.24004917 0.36326778 0.46559423 0.4791789 0.28837046 0.1460101 -0.12008313 0.16306295 0.30752078 0.4630661 0.37707254 0.5299679 -0.07825182 -0.091314286 -0.12240134 -0.06982184 0.43029484 0.3518114 0.57619625 0.013900124 -0.024712488 -0.08469169 -0.18080059 -0.13365337 0.11823658 0.38908756 0.3000674 0.28054368 0.60107696 0.06745672 0.08966405 -0.2332441 -0.10191603 0.0055839196 -0.03459472 0.026617026 0.08670325 -0.0041548302 0.13162339 0.41175497 0.55984783 0.58346045 0.2885366 0.3091779 0.07089202 0.089009404 0.09186678 -0.05443357 -0.10479024 -0.1086292 0.0034998595 0.12341481 0.3106731 0.41861418 0.455168 0.47454816 0.5203834 0.49573123 0.25479847 0.21694998 0.15589893 0.2501434 0.3650661 0.40868318 0.42568874 0.3734844 0.14755762 0.2635798 0.059613135 -0.039959528 -0.0579922 -0.0059305653 0.11967695 0.3265316 0.45291293 0.48049837 0.20643869 0.28607035 0.34554818 0.41643512 0.4325574 0.3833503 0.30315912 0.39691848 0.13136181 0.0639147 0.0071732104 0.13020368 0.24850392 0.3755921 0.4407657 0.46780825 0.34909227 0.4101711 0.4304845 0.36086535 0.43098912 0.36572593 0.2994669 0.13134392 0.077987656 0.47893316 0.5204198 0.5344311 0.484934 0.41688317 0.51038766 0.4750104 0.4657621 0.24520028 0.33151376 0.39889696 0.19390683 0.26829478 0.35948598 0.43176958 0.44150493 0.24092588 0.21535152 0.07887712 0.14796314 0.21632336 0.42283458 0.39336184 0.19828302 0.12304816 0.024671972 0.39499006 0.3874474 0.39878675 0.21690951 0.4181509 0.38380468 0.38412616 0.3122824 0.3325646 0.29599234 0.26390585 0.43042797 0.31263316 0.2880288 0.21942642 0.21021646 0.18771106 0.29631215 0.41952735 0.1658751 0.01496781 0.39503568 0.31683308 0.7258098 0.6773939 0.5938436 0.49020016 0.40186837 0.2355696 -0.16947672 0.2358627 0.21156247 0.7630464 0.70128876 0.49170685 0.45141906 0.27055526 0.12526272 -0.0950121 -0.08906293 0.11609353 0.81209415 0.79649043 0.10187009 0.08132158 -0.02024138 0.05761251 0.75859016 0.05797972 -0.014061108 -0.045576863 -0.11294976 0.7159719 0.67419344 0.33055678 0.023866124 -0.06484913 -0.31864744 0.14720261 0.18266065 0.2550907 0.33163834 0.4299314 0.46578878 0.6242023 0.5832006 0.5133863 0.43925333 0.34951445 0.17063788 0.2627867 0.17833856 0.21592386 0.20245859 0.18160164 0.3336633 -0.34583932 -0.312118 -0.2956318 0.3001129 0.33001024 0.3500414 -0.08473044 -0.3098759 0.4259699 0.43908244 0.14453408 -0.16986737 -0.20461583 -0.05782312 0.47613525 0.32380003 0.3152061 0.16000234 0.19690138 -0.19032843 0.028813787 -0.026029117 0.48576272 0.018938318 0.048146583 0.3254318 0.00848572 0.13176043 0.25933278 0.056109175 0.033433594 0.2413997 0.4433918 0.46930933 0.103068024 0.0718672 0.2993341 0.382392 0.38300914 0.23837146 0.09209624 0.08960141 0.099461436 0.12710187 0.21466616 0.37288427 0.42867613 0.4455223 0.34909305 0.41032422 0.3342641 0.23119812 0.14509511 0.09601396 0.11203837 0.13483834 0.18579689 0.4570014 0.44948882 0.39597625 0.31275535 0.43440804 0.51217717 0.32865486 0.31835198 0.28151262 0.25853986 0.21741718 0.22726043 0.14125344 0.21598573 0.40103632 0.42426258 0.23403776 0.19816019 0.11283611 0.4250012 0.39344892 0.27179787 0.38097388 0.26156104 0.26924306 0.3475706 0.47120458 0.476799 0.43781936 0.32845247 0.30459622 0.28522104 0.21537904 0.37943506 0.40878266 0.41571674 0.27495217 0.23415573 0.06732623 0.39625186 0.3311231 -0.076443404 0.35293704 0.15931061 -0.0045357347 0.26591852 0.76788455 0.70678556 0.5934062 0.45606977 0.37905407 0.25549182 0.117201194 0.032150075 0.009705599 -0.19866595 0.09133804 0.81111634 0.77704436 -0.33523345 -0.11713717 0.8508446 -0.069324866 0.799594 0.76119506 -0.18659706 -0.08861492 0.70204663 0.6516068 0.050718147 0.3259455 0.431141 0.36752903 0.56384254 0.50364566 0.3142028 0.16247526 0.14393952 0.15571411 0.15256134 0.19937715 0.22344679 0.16476262 0.400816 0.07168932 0.4591424 0.4397539 -0.066262424 0.46750134 0.02341681 0.18473807 -0.045477826 0.46788627 0.070822656 0.06782747 0.040184762 0.032011226 -0.14973944 0.021693178 0.1584372 0.33021864 0.390302 0.43827403 0.21519536 0.20117216 0.06963485 0.19857188 0.25857288 0.058814086 0.11013121 0.15856561 0.43486542 0.45542526 0.2661478 0.30063832 0.29055217 0.2999395 0.23019317 0.14794834 0.14369516 0.06664248 0.22898698 0.27600953 0.28523514 0.48313645 0.52281183 0.49880636 0.46702698 0.39477557 0.54406756 0.2549169 0.2828641 0.5628907 0.560251 0.5254269 0.44243208 0.52494466 0.5659832 0.5998385 0.57819366 0.55071765 0.5846313 0.63790405 0.6211011 0.6288853 0.7899879 0.8517084 0.871788 0.58563685 0.7166321 0.7682098 0.83330655 0.44858462 0.4562431 0.5409623 0.6484583 0.7462692 0.33022 0.3485735 0.46838248 0.46290952 0.15023245 0.18029548 0.13853134 0.2859237 0.17297691 0.06511424 0.064339645 0.10661242 0.23838343 0.35135055 0.23760356 0.23297772 0.31463146 0.26552516 0.22271235 0.2818362 0.26785272 0.4525775 0.49052933 0.48629194 0.45096433 0.29672545 0.26035866 0.2666766 0.2190828 0.29279768 0.34942162 0.43094298 0.2074943 0.12457576 0.25059164 0.3154875 -0.09416519 0.21908708 0.23050666 0.67600465 0.7765772 0.76545537 0.026450977 0.1846184 0.14132428 0.5436656 0.6140143 0.69349504 0.71100473 0.65267205 0.81156766 0.7958574 0.73458123 0.5414453 0.35804376 0.33362415 0.056432337 -0.26539975 0.1796442 0.37228298 0.4488902 0.5471972 0.58289886 0.5395897 0.84726673 -0.17401522 0.18244225 0.27033624 0.40366992 0.3765353 0.87940586 -0.18815552 0.80016613 0.76678634 -0.27308166 0.7118168 0.62310266 0.38682342 0.5785961 0.52144444 0.49072102 0.21842587 0.18912917 0.14873098 0.11892586 0.114509195 0.1325617 0.13812494 0.1385715 0.27722067 0.14698511 0.2595087 0.22545041 0.14839955 0.001792429 0.0060799792 -0.13217428 0.43264216 -0.019700594 0.07347979 0.15862536 0.034019075 0.06843914 -0.1680499 0.33951122 0.23256329 -0.10378346 -0.17619094 0.1508183 0.41345668 0.3074059 -0.06566112 -0.14493823 -0.0044867694 0.15813124 0.23881969 0.4599551 0.48956108 0.23822586 0.43629366 0.47953862 0.43208668 0.3935756 0.042832673 0.05978527 0.12949643 0.28790745 0.19255948 0.24880055 0.2591857 0.25284478 0.48298734 0.53956515 0.5731399 0.5525943 0.41858354 0.45449203 0.5488001 0.3315839 0.3793865 0.37544686 0.54847306 0.547086 0.5097994 0.57080746 0.58325315 0.40598202 0.37955785 0.39888883 0.40881163 0.5132462 0.5873015 0.6269298 0.5865122 0.6206105 0.6343216 0.63774455 0.64581203 0.8137591 0.8841277 0.90280735 0.50089973 0.65174085 0.7338002 0.88420683 0.8660641 0.37832874 0.44675767 0.80071855 0.5693046 0.52775043 0.42989048 0.24282481 0.13599826 0.52581054 0.54289544 0.5097492 0.22414237 0.033623073 0.4376349 0.46531445 0.12503636 0.05270248 0.302347 0.16062382 0.18255056 0.22323099 0.14245431 0.18019849 0.1269545 0.39784998 0.45036417 0.45106012 0.27982026 0.2395629 0.17280905 0.17571165 0.15959863 0.16766346 0.16186541 0.31173936 0.36845347 0.0437631 0.6312013 0.72712773 0.6983496 0.17593464 0.25287616 -0.39250758 0.0948652 0.27357012 0.335761 0.49093354 0.57628644 0.71524435 0.6414335 0.05345501 0.032307044 -0.2416029 0.26085985 0.57322323 0.47053343 0.84724253 0.7640184 0.71178776 0.31558943 0.25335708 0.06635367 -0.35599858 0.048827462 0.4939065 0.86318207 0.90853786 -0.40114534 0.014634281 0.09743214 0.05714549 0.058946334 0.22162049 0.3559081 0.3555913 0.33285546 0.85984147 0.8365916 -0.34112135 -0.12742403 -0.067835435 -0.091352776 -0.03888218 0.17627151 0.26057833 0.305793 0.8096909 0.7751665 -0.5055916 -0.51942 -0.50378835 -0.19573319 -0.09710091 -0.122266546 0.2260058 0.22174576 0.7338586 0.6870668 0.5825599 -0.12238058 0.18683912 0.5254203 0.44040722 0.100089 0.30868015 0.09685245 0.05888046 0.38164675 0.057847634 0.01213111 0.3653945 0.028468251 0.28302303 0.25868806 0.006967768 0.18732905 0.08735742 0.23070987 -0.060119107 0.63963014 -0.017272092 0.33480716 0.649445 0.76194304 0.77731264 0.08677272 0.00078836456 0.7141955 0.8084369 0.8273406 0.17540032 -0.38359246 -0.27615196 -0.25206333 0.05516081 0.7293125 0.81605506 0.8288003 0.35471195 -0.036569875 -0.19218828 0.13150455 0.41261163 0.44345576 -0.041847136 -0.12991844 0.06476766 0.22755721 0.16236219 0.17159554 0.17563713 0.39720154 0.42949355 0.48484764 0.21014518 0.1830132 0.068229586 0.11588286 0.17256245 0.3146226 -0.028109107 0.0453751 0.10672176 0.48260027 0.5088316 0.50320125 0.38773924 0.24887376 0.37513244 0.41156292 0.4170769 0.3597743 0.45354298 0.5002471 0.40734586 0.39606303 0.4212414 0.4170459 0.38712126 0.47220567 0.5275887 0.37683582 0.5079156 0.5675411 0.5564325 0.528496 0.56933117 0.6152505 0.6200775 0.6077958 0.635488 0.65382826 0.63813776 0.64372814 0.6570889 0.6629347 0.6510472 0.644956 0.71510434 0.8167793 0.90515643 0.9077922 0.66286767 0.84606886 0.8216137 0.546883 0.47105747 0.43366492 0.38048342 0.45466906 0.7260121 0.54182124 0.568218 0.5193237 0.41619566 0.2657673 0.3984393 0.45616361 0.2687498 0.40337312 0.12368115 0.2939855 0.2568614 0.12326667 0.13964215 0.09072369 -0.33155596 0.08667889 0.33932474 0.17213786 0.09233157 0.024109969 -0.12481907 -0.33604646 0.031057946 0.27813917 0.23903021 0.04009244 0.18702917 0.3508706 0.61156416 0.5909579 0.55865943 0.13281368 0.006520748 0.38514078 0.5378293 0.047693707 -0.02245985 0.5133722 0.365246 0.065563366 0.32726943 0.8809209 0.7148824 0.12723683 -0.5029136 -0.3121654 -0.057977743 0.3488786 0.35008353 0.8404443 0.6165243 0.53290355 -0.24997231 0.30833235 0.34138477 0.7482245 0.714452 0.5741501 0.42162856 -0.593907 -0.72972584 -0.2928581 0.26325196 0.30709955 0.35951132 0.017193653 0.036603108 0.28358483 0.08140337 0.021554805 0.36500955 0.0020331368 0.39855927 0.388538 -0.01913324 0.3863309 0.38272402 -0.0022157729 -0.00018379092 0.09220437 0.3068107 0.022981584 0.05464091 0.20830953 0.36486757 0.17646086 0.19180457 0.014901854 0.15336083 0.53185666 0.6130046 0.03582811 -0.014809266 0.1686016 0.5103606 0.72126186 0.73027796 0.02074146 0.11146793 0.553659 0.8143425 0.791391 0.19981334 0.18062183 -0.06299942 0.70926416 0.7868173 0.79554844 0.77555954 0.25357932 -0.015334398 0.5443638 0.6558408 0.7099017 0.7078075 0.31335032 0.32809484 0.08715109 0.36449015 0.42074743 -0.004908122 -0.094109654 0.04003505 0.3774864 0.40044367 0.415431 0.185397 0.014289077 -0.020091644 0.08268085 0.22173789 -0.03090209 -0.2198681 -0.1704822 0.2612935 0.126697 0.11285405 0.3194138 0.3942626 0.39015073 0.355467 0.19537559 0.17002706 0.16958378 0.3167771 0.26233077 0.19122829 0.2699498 0.27805063 0.19317427 0.22634897 0.23297714 0.44989568 0.3231269 0.17267153 0.19640508 0.252345 0.3648184 0.38524464 0.4086166 0.54476213 0.5815822 0.4839276 0.62650734 0.6422717 0.60990906 0.6371765 0.63298994 0.6261329 0.58222294 0.7043385 0.8220064 0.8560047 0.539799 0.5984181 0.82192004 0.7545943 0.5555391 0.5036218 0.43683425 0.3592093 0.24105585 0.35301042 0.69958603 0.47865438 0.31002307 0.46682808 0.1374595 0.1214649 0.1544278 0.056782074 0.09751477 0.20500897 0.27457976 0.07413001 -0.007913262 0.2422933 0.4162728 -0.040562835 0.19860767 0.41625544 -0.07381517 -0.0645581 -0.10388212 0.28470048 0.31815997 0.16255489 -0.044601 0.09765722 0.067782 0.15462321 0.33253205 0.47821194 0.5191272 0.47656292 -0.06763742 0.01403556 0.41044703 0.27340558 -0.09515802 -0.08668515 0.2670278 0.22997521 0.27491692 0.33158863 0.31111717 -0.09418735 0.34314892 0.34316385 -0.42079535 0.21797757 0.29572743 0.045584213 -0.0059951097 -0.13887653 0.092364244 0.15770122 0.17154376 0.06109232 0.20523298 0.3324274 0.20885082 0.2070791 0.40413365 0.03417638 0.043024242 0.3893093 0.15838468 0.2698168 0.33068264 0.38891247 0.15399729 0.15991545 0.45325023 0.56957066 0.088778496 0.032212965 0.6569817 0.046688873 0.033584725 0.7261064 0.17748833 -0.0753977 0.7030505 0.7073426 0.23986751 0.29533327 0.07212545 0.08216512 0.08456135 0.5092076 0.5682347 0.64304215 0.6572749 0.24311292 0.0794219 0.12602718 0.12899145 0.5707966 0.5893568 0.31219876 0.22038825 -0.07870273 0.08958539 0.11908539 0.13197464 0.25425908 0.19011085 0.109916225 0.10494071 -0.071776226 -0.09073729 -0.011370309 -0.013914838 -0.068320125 0.07172509 0.13204548 0.0925892 0.08630128 -0.00437738 0.06251712 0.0159588 -0.17606299 0.34500146 0.41227034 0.16414556 0.1193132 0.090704344 0.18601942 0.1574927 0.13992079 -0.015216023 -0.042966645 0.48660877 0.5653001 0.5325696 0.4565835 0.25287926 0.15171447 0.14778253 0.061629113 0.10851219 0.61204636 0.5907222 0.515736 0.20195869 0.15695602 0.03075418 0.31205252 0.4202954 0.37653196 0.40907973 0.43789697 0.51756054 0.31035447 0.4015445 0.44304454 0.4546613 0.6055861 0.3641351 0.42288572 0.6244347 0.60870874 0.56920695 0.5429696 0.3993536 0.418388 0.38998145 0.5892731 0.5775038 0.50429213 0.46878707 0.6871924 0.48483843 0.59029794 0.67043245 0.77047354 0.4655426 0.44224793 0.40747154 0.3164754 0.29278222 0.14554697 0.4092599 0.72805846 0.322276 0.3193164 0.21998425 0.057136167 0.003602095 0.6331085 0.34102932 0.27334124 0.21274668 0.11951688 0.18738973 0.28574592 0.3081466 0.37837029 0.33495444 0.24866675 0.13510163 0.36188027 0.488308 0.365068 0.2964229 0.21470371 0.059598733 0.39318353 0.52591324 0.26905143 0.25232184 0.057133652 -0.005179338 0.42007434 0.5318624 0.13782714 0.003435582 -0.06000622 0.37609226 0.40549093 0.14212307 -0.17836829 0.0027682036 0.034912743 -0.01952675 0.29051661 0.20366798 -0.26897702 0.2944417 0.4177031 0.16185233 -0.2989089 0.1534374 0.4797789 0.34029338 0.18499984 0.2460143 0.22008082 0.28278866 0.28936723 -0.36607832 0.09843753 0.0049825013 -0.2358401 0.056210328 0.12873894 0.15607747 0.1516637 0.14918248 0.35416895 0.12052379 0.079701036 0.31884706 0.16521421 0.311066 0.11294863 0.11235593 0.39352643 0.49628493 0.099992864 0.07590712 0.5917038 0.0700282 0.6070367 0.11547418 0.13830942 0.5822542 0.5936149 0.2842767 0.30000955 0.1126046 0.4999237 0.5191641 0.3374687 0.337972 0.21993354 0.06765689 0.25258663 0.4326588 0.5292057 0.090795174 0.13152887 0.059449084 0.15095802 0.0681931 0.016997576 0.03785196 0.11651139 -0.17856121 -0.07915545 0.19695121 0.25611994 0.33961254 0.091752216 0.05879998 0.15966699 0.15906796 0.028232627 -0.12507024 0.030607276 0.15691628 0.293163 0.56141245 0.20917322 0.17349142 0.2012856 0.19953835 0.15241925 0.028567992 -0.1843378 -0.026509643 0.34090838 0.6306735 0.63036907 0.60208714 0.54726565 0.42758298 0.05249308 0.40818292 0.41820627 0.6224948 0.60183614 0.33420366 0.2828222 0.44516653 0.4153412 0.46128583 0.45380926 0.5156169 0.4593361 0.5655147 0.46222532 0.52238834 0.52149737 0.44679683 0.28392696 0.4783567 0.50291264 0.49765044 0.5082171 0.5577606 0.5624882 0.5605086 0.577862 0.60996723 0.5886161 0.60501623 0.53155714 0.59407973 0.48223573 0.5140017 0.5311396 0.501448 0.2572949 0.2100279 0.13551381 0.4456436 0.3987952 0.40913433 0.07796125 -0.028687406 -0.056057915 0.07896447 0.11170502 0.4189306 0.39255905 0.21746841 0.30944404 0.42641285 0.38391382 0.47990197 0.5750802 0.41454563 0.37873054 0.5958671 0.36328942 0.32673442 0.6229285 0.53685856 0.16877005 -0.095659345 0.37406236 0.2153748 -0.048585415 -0.18934003 -0.10296673 -0.09784557 0.4799075 0.40938884 0.31930226 0.22119045 -0.038214505 -0.081541166 0.047338516 -0.0007363409 0.5944691 0.5507587 0.076315075 0.06645638 0.45566 0.11890132 0.13236222 0.32174957 0.15622999 0.25877285 0.17323293 0.32356045 -0.0757148 0.14916533 0.30056933 0.11961284 -0.007540445 0.027686287 0.17772296 -0.27277645 0.1906536 0.12495297 0.06175177 0.27354914 0.09060606 0.55413425 0.42111927 0.21674497 0.22188464 0.38531095 0.46266294 0.41735834 0.505147 0.5509466 0.55271965 0.08867363 0.52096564 0.14915283 0.20325294 0.41134998 0.5046119 0.26026356 0.32784843 0.31767097 0.42885238 0.4075011 0.38133082 0.35966957 0.20933315 0.08890354 0.012998454 0.23183401 0.05085843 0.068285 0.10689893 -0.003348522 0.27597925 0.32073227 0.30513227 0.5913519 0.23718563 0.15872851 0.069295675 0.10315852 0.22058749