# vtk DataFile Version 2.0
Really cool data
ASCII
DATASET POLYDATA
POINTS 7875 float
-12.604893 25.034529 45.88929
-12.644188 25.044914 46.16486
-12.683038 25.53749 45.616535
-12.658171 25.487312 46.30071
-12.570645 26.522652 44.84583
-12.627292 26.335575 45.48192
-12.613195 26.221357 46.32005
-12.535961 26.897373 45.628353
-11.953497 24.24414 45.619865
-11.818814 24.116583 46.038383
-11.879669 25.226114 44.040276
-11.930851 24.767664 44.654865
-12.340163 24.72088 45.529312
-12.310147 24.643719 46.298267
-12.128146 24.932991 47.020634
-12.009179 25.69727 43.785076
-12.288299 25.469278 44.625343
-12.255676 25.468554 47.085842
-11.803648 25.720055 47.684597
-11.825496 26.246313 43.324287
-12.160628 26.417719 43.82282
-12.475423 26.687174 44.625668
-12.417057 26.467096 46.349255
-12.067928 26.38548 47.158993
-11.703545 26.216211 47.729588
-12.280634 27.351542 44.533497
-12.296143 27.3487 45.545517
-12.051959 27.232779 46.362373
-11.670597 27.022726 47.4684
-11.9397545 27.94799 44.640438
-11.904968 27.941765 45.390656
-11.287773 24.152018 44.889057
-11.502412 23.973097 45.569828
-11.488789 24.081388 46.51449
-11.075287 24.277462 47.216824
-11.40351 25.092676 43.733837
-11.665785 24.496956 44.667664
-11.509016 24.568287 47.19097
-11.105044 24.925508 47.846912
-11.423592 25.865948 43.121407
-11.223918 25.738653 48.03963
-11.037727 26.772856 42.75484
-11.033638 26.413048 48.22997
-11.307731 27.211739 43.037323
-11.571439 27.387024 43.45048
-11.35046 27.352602 47.429405
-11.0648155 27.069553 47.997963
-11.235381 28.178417 43.87896
-11.359265 28.3188 44.67743
-11.322861 28.219212 45.564518
-11.357863 27.975372 46.237373
-10.854865 27.851414 47.20705
-10.852018 24.370995 44.29619
-10.519699 23.928764 44.8191
-10.570195 23.766129 46.50673
-10.11234 24.228865 47.67895
-10.441805 24.792484 43.731537
-10.30019 24.860624 48.166298
-10.330589 26.149853 42.579277
-10.457729 25.453615 48.416237
-10.300557 25.774582 48.574783
-10.066963 26.668747 42.119617
-10.120588 26.327904 42.421444
-10.508018 26.430899 48.471203
-10.238927 26.095716 48.556908
-10.027498 27.42259 41.860027
-10.499444 27.451096 42.40757
-10.523567 27.274813 48.149445
-10.020479 28.193523 42.046295
-10.387576 28.227016 42.544003
-10.643102 28.513458 43.430836
-10.011629 28.529661 45.50313
-10.640141 28.094303 46.632122
-10.313916 27.9725 47.30891
-9.909884 28.8036 42.658546
-9.849697 28.848408 44.362484
-9.733696 36.906242 57.148396
-9.783093 36.746567 57.674145
-9.734776 36.792854 58.317165
-9.667087 37.50963 56.857594
-9.891677 37.44413 57.695683
-9.842642 37.359116 58.280857
-9.658818 37.532738 58.72846
-9.695895 38.031918 57.0292
-9.672396 38.302708 57.601505
-9.704451 38.17227 58.19299
-8.578857 19.122332 46.586254
-8.64455 19.22758 47.01082
-8.670462 19.511497 46.557987
-8.707552 19.759499 47.36469
-8.607791 20.108612 46.08322
-8.709822 20.334179 47.554974
-8.61933 20.253452 47.777542
-8.603916 21.073877 46.935608
-9.038007 24.211823 44.219254
-9.242904 23.816406 44.676838
-9.10001 23.676394 46.649002
-9.834889 23.789822 46.919384
-9.659996 24.266 47.74848
-8.584119 23.814922 62.717888
-8.612421 23.51103 63.334995
-8.571317 23.734312 64.067894
-9.244652 25.010775 43.26313
-9.461125 24.694912 43.492947
-9.618634 24.755474 48.308628
-8.530135 24.561342 61.98107
-8.567179 24.64946 62.61825
-8.529956 24.396921 63.897358
-8.542222 24.091734 64.17049
-8.559172 25.58973 39.729713
-9.749605 25.421154 43.134468
-8.606616 26.38274 39.614796
-9.451425 26.180485 48.61765
-8.569382 26.968365 39.917965
-8.911364 27.544966 40.89642
-9.819298 27.317501 48.17606
-9.3208275 28.540272 41.624393
-9.30527 28.45825 46.47142
-9.393059 28.10625 47.33749
-9.670807 27.75925 47.840176
-8.754758 29.754301 42.086693
-9.459479 29.0974 42.509995
-8.745188 29.47173 45.399708
-8.811271 28.946972 45.773876
-8.616221 29.972641 42.00469
-8.777643 29.998495 42.5843
-8.848527 30.055319 43.05504
-8.959458 29.701609 44.374413
-8.99623 36.08845 56.810646
-8.974344 35.59859 57.555157
-9.249695 35.95615 58.34908
-9.008861 37.00469 55.981995
-9.349345 36.63291 56.783806
-9.527723 36.608192 58.55436
-9.341349 36.70928 58.94687
-9.216744 37.120884 56.09746
-9.30438 37.387352 56.28854
-9.309566 37.533253 59.086033
-8.835592 38.209335 55.86057
-9.314997 38.374264 56.66508
-9.494015 38.559284 57.464985
-9.438179 38.38448 58.455265
-9.247194 38.207222 58.854515
-9.1103325 38.93695 57.024933
-9.124261 39.035816 57.586777
-9.112563 38.97214 58.154533
-7.8085337 19.073524 45.381557
-8.1372 18.89662 45.82708
-8.238167 18.753746 46.509594
-8.190022 18.899412 47.400925
-7.8157816 18.997515 48.007214
-7.9297194 19.510073 45.256344
-8.342631 19.494942 45.654686
-8.49763 19.55482 47.67767
-8.178941 19.451878 48.002033
-7.910896 20.34663 45.248283
-8.273411 20.395842 45.569267
-8.409997 20.297688 48.12578
-7.883257 21.457874 45.33389
-8.413865 21.43022 46.293556
-8.36417 21.475885 47.611755
-7.8303547 21.258343 48.5026
-7.736236 22.112865 62.10544
-7.7722096 21.791498 62.775356
-7.967737 21.941452 63.64645
-7.65362 21.969341 64.475845
-8.140267 22.777607 47.508205
-7.787696 22.117554 48.335693
-7.6947503 22.766165 48.948074
-7.8647604 22.719736 61.986546
-8.002691 22.48924 62.54106
-8.192883 22.672295 63.459805
-8.200378 22.756632 64.33753
-7.9137745 22.73904 64.873505
-8.193203 23.744574 44.06424
-8.420866 23.660427 44.406128
-7.8150697 24.141357 61.11667
-8.325627 23.856281 61.877205
-8.402533 23.589214 62.539078
-8.480779 23.380573 63.304737
-8.356799 23.549946 64.646454
-8.110301 23.616554 65.02374
-7.7756786 25.179455 37.572777
-7.9716754 24.815584 38.700577
-8.045356 24.585949 39.39145
-7.9830346 24.64746 40.234737
-8.115152 24.735815 41.123146
-7.988667 24.56142 61.170563
-8.337086 24.62005 61.651985
-8.5144825 24.21808 62.18663
-8.339104 24.474876 64.388535
-7.9697504 24.169487 65.049355
-7.7408347 25.75493 37.037407
-7.899519 25.588531 37.43756
-8.361958 25.501219 38.763374
-8.475083 25.395628 39.44256
-8.510138 25.561085 40.208595
-7.949754 25.239088 61.17833
-8.296383 25.259834 61.8036
-8.36076 25.44754 62.50691
-8.26488 25.491312 63.447178
-7.9774394 25.392454 64.08726
-7.7532916 26.347225 37.074135
-8.039131 26.408728 37.610634
-8.33226 26.218136 38.34183
-8.885772 26.43858 48.493423
-7.8253303 25.926077 61.151695
-8.003445 25.90225 61.871334
-7.9429393 26.156967 62.476532
-7.9755144 26.08834 63.304016
-7.8477507 25.961391 63.842033
-7.8626738 27.126081 37.866394
-8.515605 27.61469 40.913895
-8.574436 27.666956 47.77602
-8.336562 27.954525 47.40668
-8.287032 29.002214 41.456493
-8.609607 29.484865 45.52101
-8.00214 29.394804 45.94282
-7.9824734 30.032965 41.313984
-8.116346 30.339174 41.762344
-8.402561 30.532957 42.283524
-8.27382 30.643734 43.10512
-8.281211 30.280624 44.667816
-8.322221 29.806963 45.32378
-7.8935475 29.931067 45.70136
-7.9153214 30.830404 42.09166
-8.029599 30.897985 42.478436
-7.991264 30.854725 43.527973
-8.143304 30.63858 44.029533
-7.9172454 33.963337 57.942917
-7.8136144 34.026566 59.10229
-8.187057 34.54853 57.489563
-8.376947 34.56011 58.417553
-8.084992 34.79387 59.302906
-7.7492213 36.1575 54.97144
-8.2242 35.62459 59.38409
-8.035562 35.76387 59.7261
-7.889005 36.813744 53.951115
-8.112253 36.704765 54.553738
-8.551289 36.761074 55.46009
-8.589766 36.66305 59.54148
-7.8313756 37.56676 53.340923
-8.1787405 37.48937 53.790367
-8.450648 37.443142 54.321266
-8.737022 37.409214 59.5297
-8.084007 37.48814 59.788036
-7.802358 37.98661 53.36733
-8.035257 38.34044 53.76639
-8.297457 38.574738 54.449505
-8.398063 38.106907 55.358387
-8.369936 38.284157 59.31809
-7.902129 38.02217 59.74173
-7.7504344 38.987953 53.93744
-7.8728123 39.121227 54.420506
-7.99338 39.151276 55.143555
-8.55708 39.315994 57.614845
-8.483055 39.162518 58.387226
-8.606051 38.862736 58.782093
-7.485286 18.36173 45.929794
-7.058112 17.869877 46.638325
-6.866899 17.766628 47.29883
-7.1468487 18.206884 47.85631
-7.331225 19.090738 45.161633
-7.757221 18.687109 45.634827
-7.4881806 18.888088 48.19868
-7.761091 19.715221 45.171574
-7.119934 19.618196 49.01864
-7.1698275 20.285894 44.89387
-7.196996 20.657944 49.14348
-6.939735 21.110361 62.73319
-7.334385 21.225138 63.662548
-7.0501933 21.208458 64.1828
-7.1744285 21.511854 49.192085
-6.780801 21.466661 49.594086
-7.254495 21.727789 62.02218
-7.501549 21.48855 62.67644
-7.2387443 21.542938 64.51428
-7.1225977 21.88613 64.83515
-7.368132 22.65805 45.17533
-7.4376006 22.476215 48.9823
-7.4640107 22.472113 61.748093
-7.472007 22.657402 65.059044
-6.9564486 24.297197 37.90766
-7.0662937 24.199547 38.69298
-7.3112073 24.133406 39.632385
-7.3423395 24.103067 40.505928
-7.6572933 24.075323 42.564785
-7.7055078 23.625254 44.164543
-7.21455 23.550964 49.264153
-7.380207 23.614532 61.10207
-7.6492224 23.214167 61.468185
-7.476677 23.542194 65.382866
-7.1549673 23.59672 65.54284
-7.1933627 25.11382 36.93421
-7.374606 24.734922 37.6869
-7.5023003 24.48042 38.44728
-7.412573 24.183044 49.040375
-7.112507 24.827126 60.1556
-7.335226 24.572948 60.588497
-7.4117026 24.247583 65.3059
-6.9206114 25.725689 36.377014
-7.325074 25.72722 36.698708
-7.033663 25.387514 48.5238
-6.9574995 25.388655 48.58432
-7.0555925 25.389662 59.655567
-7.429842 25.313257 60.63364
-7.702023 25.10066 64.55571
-6.9963303 25.022572 64.98588
-7.037962 26.296524 36.403545
-7.354856 26.400625 36.680298
-7.0488105 26.073574 48.564655
-6.6432657 26.769663 59.199715
-7.0035977 26.159052 59.68251
-7.468081 26.471912 61.008778
-7.469482 26.627428 61.628567
-7.577739 26.54922 62.62659
-7.574308 26.328892 63.52587
-7.3917036 26.025543 64.064514
-7.1484833 27.156834 36.844658
-7.358027 27.66113 37.564423
-7.354301 27.613144 47.50936
-7.1843 27.172052 47.852386
-6.8811145 27.181925 60.130775
-6.863082 27.388882 60.70427
-7.2247524 27.049868 61.433487
-7.0435705 27.088652 62.315723
-7.204833 26.6443 63.389572
-6.7239885 27.989628 37.153717
-6.9689827 28.12691 37.736515
-7.184581 28.222588 38.451996
-7.4999995 28.680351 40.313198
-7.75897 28.174616 46.997322
-6.9934096 29.314754 40.147617
-7.458627 29.40462 40.681454
[...]
POINT_DATA 7875
SCALARS features_00 float 1
LOOKUP_TABLE default
0.69381344 0.7060282 0.69006974 0.710767 0.6702575 0.6724662 0.68156254 0.64622205 0.6465826 0.6667888 0.57339424 0.587082 0.6586052 0.69975066 0.7153651 0.59979475 0.644284 0.72058177 0.6761576 0.5775976 0.6412872 0.6690904 0.66644883 0.67511046 0.66060805 0.64807576 0.62441343 0.6174693 0.6425221 0.60688114 0.5827115 0.53122 0.61828315 0.6570463 0.5980505 0.50154865 0.5599707 0.66018075 0.6205824 0.5242417 0.638482 0.4838338 0.63474846 0.49914595 0.5591706 0.6201227 0.6331433 0.5220976 0.5320325 0.49121565 0.51994735 0.5332962 0.41513824 0.39689386 0.5459585 0.5158793 0.3520939 0.5805289 0.45916986 0.6099023 0.613055 0.3942276 0.4379163 0.62282175 0.61455727 0.31297326 0.39864147 0.6095263 0.27798274 0.3474511 0.40415892 0.2669049 0.42618206 0.46564808 0.29694447 0.32837042 0.6406927 0.6870224 0.7217661 0.6362171 0.73056483 0.753358 0.7566084 0.6799756 0.7493942 0.77413225 0.65242153 0.6230192 0.6688453 0.5983319 0.6787665 0.57172936 0.5442428 0.61584747 0.10606231 0.13388087 0.3072046 0.43835545 0.46909413 0.55294216 0.6205412 0.7154778 0.17248234 0.18796742 0.52279043 0.5014839 0.57404697 0.70246196 0.72660214 0.44593197 0.34378928 0.39748925 0.5432608 0.2783041 0.13290456 0.54247546 0.20559885 0.20711039 0.31240284 0.45098945 0.33354402 0.28483424 0.24178167 0.18720262 0.35667592 0.39300385 0.41963643 0.34198287 0.45737177 0.52029353 0.6266491 0.4739582 0.54207224 0.69794214 0.6844511 0.50388306 0.5426389 0.7373171 0.5186976 0.6256926 0.74467516 0.7804249 0.7687441 0.6910678 0.7579378 0.77561736 0.49546155 0.5846255 0.6207909 0.5606837 0.47655132 0.4921729 0.601931 0.5629007 0.50950813 0.4622524 0.5743488 0.48614052 0.36743304 0.6484699 0.45939422 0.33766603 0.5618598 0.67010236 0.76555085 0.8298825 0.16213113 0.29203475 0.2922159 0.49795637 0.5620651 0.6701015 0.7696922 0.7950013 -0.12836432 -0.0602702 0.40438375 0.46991968 0.5269712 0.6165248 0.7660085 0.77540433 0.5795339 0.470931 0.40759066 0.3480443 0.23018508 0.4307256 0.47520742 0.509171 0.7412303 0.7632023 0.6022099 0.59592474 0.5046626 0.458636 0.4116006 0.45760635 0.5086195 0.58926374 0.6598476 0.67464185 0.5988301 0.5948641 0.54189736 0.38921455 0.46996012 0.52789026 0.5642829 0.5960332 0.61478895 0.560824 0.14842148 0.24113122 0.14694759 0.26255727 0.23903778 0.18864174 0.35427606 0.40018728 0.43846533 0.5012691 0.39317715 0.28792974 0.2686945 0.48065782 0.5017392 0.5378203 0.4954213 0.33959046 0.43242964 0.34447175 0.4649743 0.46261615 0.3258505 0.50908345 0.49195164 0.5152892 0.45248306 0.4148181 0.612549 0.6026104 0.59262764 0.5638084 0.6822306 0.60612047 0.61282533 0.6091274 0.58467954 0.5293634 0.6900032 0.6038596 0.6022641 0.59450793 0.56951714 0.72464144 0.7379213 0.7409029 0.50236183 0.4451076 0.35223407 0.37761635 0.40831423 0.5144563 0.42032528 0.4514426 0.3610747 0.30942532 0.29778436 0.7871111 0.8548938 0.8810917 0.25960398 0.22210594 0.5943624 0.7060314 0.8596804 0.8372389 -0.17203921 0.28715017 0.49407345 0.79859555 0.44675642 0.35990077 0.30980706 0.22177944 -0.15025672 -0.22681513 0.25607386 0.37437123 0.42505923 0.7678783 0.7554709 0.5869993 0.5378392 0.43875876 0.17854562 0.30916312 0.35605133 0.7451124 0.5928633 0.59938854 0.05241636 0.0492066 0.2787761 0.40209055 0.6998906 0.6910379 0.59056807 0.59216243 0.0624237 0.25808442 0.33176032 0.45754367 0.49665466 0.54819334 0.5784414 0.6006142 0.57608485 0.5370407 0.03631637 0.057053737 0.40617913 0.4570912 0.47818607 0.5035879 0.5529499 0.5368589 0.4906916 0.38402706 0.22071561 0.05028551 0.28178883 0.30965212 0.17335656 0.42830983 0.45107076 0.37486655 0.28229117 0.5390245 0.6025083 0.5931262 0.5246039 0.43006462 0.2315346 0.30200645 0.19576342 0.22761244 0.12450485 0.32725257 0.4106295 0.39723146 0.15057476 0.39231437 0.41603976 0.21132448 0.43586215 0.5398575 0.5953766 0.4926551 0.60182524 0.6035284 0.5473325 0.5389601 0.5876013 0.6040325 0.6177405 0.48829943 0.64724207 0.6450708 0.6080605 0.6262375 0.64370143 0.6363243 0.7408361 0.7685772 0.7359614 0.7170909 0.66939455 0.72235656 0.6969555 0.695959 0.6934948 0.6735247 0.6723938 0.6717049 0.5951801 0.62786853 0.36848432 0.37126124 0.33156604 0.29436857 0.33749995 0.32526124 0.2013561 0.22481024 0.2449914 0.31083536 0.18275645 0.06230037 0.32719332 0.35401216 0.17080939 0.19837359 0.2009934 0.16850986 0.80048835 0.9078965 0.8782879 0.1565322 0.8297168 0.024027925 -0.16611736 -0.24739057 0.24209334 0.19994321 0.46410525 0.7574154 0.42714876 0.24303913 0.25188246 0.13822772 -0.05232892 -0.15136096 0.20763424 0.22149566 0.22355366 0.7470763 0.7321085 0.5539252 0.11456078 0.18128611 0.7145288 0.7131033 0.5836591 0.5825651 0.03583492 0.17794752 0.6283276 0.6652788 0.58292055 0.04414297 0.16409129 0.18894911 0.54349935 0.5777871 0.57420164 0.5660457 -0.045962892 0.014748462 0.12810501 0.14876014 0.49187404 0.503385 0.54639757 0.49938983 -0.08388435 0.12041808 0.11245755 0.106878094 0.46223548 0.46135563 0.53607726 0.4989672 0.43100947 0.33532852 0.12257695 0.22965837 0.2487382 0.43122992 0.24117611 0.39687896 0.3799093 0.22488411 0.2882959 0.3733677 0.57077014 0.60850334 0.6188982 0.52355886 0.4149996 0.395689 0.36913723 0.3608903 0.08868231 0.4478008 0.41952264 0.40455496 0.35191673 0.28367543 -0.021404203 0.13895205 0.29349008 0.32897735 0.4120785 0.40498078 0.35890543 0.27193683 -0.25263062 0.019352214 0.2796964 0.29301414 0.08231618 0.40934736 0.32514578 0.49737388 0.46744174 0.4311009 0.56382036 0.46162385 0.50056034 0.48406714 0.4792778 0.5567068 0.5972408 0.50585186 0.6263774 0.66416407 0.6600903 0.54273564 0.6602023 0.72614944 0.7596359 0.7872856 0.6448141 0.6982485 0.7631829 0.7492767 0.73855734 0.7222357 0.59027255 0.6323353 0.7130772 0.70804876 0.32538214 0.51090443 0.545644 0.6646526 0.6684744 0.33792168 0.36428076 0.35712472 0.48759186 0.6389675 0.6016873 0.42661083 0.44994092 0.44051313 0.40543637 0.36115813 0.3630377 0.37671515 0.36138374 0.30615833 0.4069271 0.49432427 0.56054056 0.57491356 0.57887995 0.42991352 0.45393986 0.43184376 0.39556456 0.33731878 0.32876545 0.28706294 0.37015563 0.4559157 0.42285895 0.4275587 0.43632 0.41174006 0.32446533 0.15141779 0.16876172 0.3459428 0.42251194 0.4588263 0.31678823 0.42347577 0.40092546 0.36682308 0.14643154 0.011900944 0.2651694 0.2926765 0.40308338 0.4184519 0.37940887 0.41058508 0.4610469 0.39320976 0.37090325 0.22751537 0.113379896 -0.0132382065 0.27302575 0.3466588 0.38954467 0.426806 0.51710546 0.5218482 0.2631248 -0.19140866 0.09494746 0.14161864 0.3821544 0.46422356 0.51409316 -0.045604654 -0.066705026 -0.12221807 -0.20393787 0.04491606 0.36354208 0.4211542 0.5549418 0.8861897 0.8382621 -0.12639442 -0.11579712 -0.14628607 0.046203036 0.34634703 0.3530547 0.32974657 0.4669368 0.521657 0.7390908 0.8083943 0.1326524 0.037491243 -0.1254399 -0.12679662 0.06269438 0.059538677 0.16933808 0.7313701 0.3862689 0.22951658 0.18643808 0.15751499 0.13499764 0.68648684 0.47402 0.08469492 0.18835509 0.18305752 0.66436166 0.53878134 -0.014469005 0.17545193 0.4876639 0.60457146 0.58170366 -0.011670902 -0.017986678 0.12629758 0.50594354 0.5848575 -0.033271514 0.10369285 0.12580691 0.5762605 0.5777179 -0.14552236 0.09741324 0.41599375 0.5584694 0.5120142 0.44723323 -0.18938732 -0.22490346 0.45156497 0.43946892 0.38386297 0.06404767 0.30235165 0.35053033 0.15366934 0.35049272 0.38828325 0.43631923 0.34861255 0.29896307 0.03341132 0.47727743 0.54217935 0.55029345 0.42031813 0.373909 0.43975633 0.4189489 0.24391392 -0.067018755 0.30888772 0.32587558 0.33874476 0.43853945 0.3550009 0.38304543 0.38941967 -0.24532926 0.2441387 0.3348873 0.31774053 0.35717064 0.24033016 -0.0027093366 0.22288111 0.3004932 0.41177478 0.4084406 0.33487666 0.40337765 0.43390977 0.5259125 0.52018267 0.57703686 0.6540756 0.64504534 0.7048473 0.71534175 0.44056103 0.5716354 0.61537266 0.60538715 0.59085786 0.6856655 0.7215966 0.7392044 0.7408718 0.4329753 0.50666636 0.6016731 0.6024041 0.5928456 0.7342751 0.72403073 0.3656457 0.42327738 0.5726284 0.5131961 0.7084241 0.42174166 0.40554154 0.3836307 0.32848427 0.10631538 0.081801936 0.4633038 0.6982676 0.422689 0.4170401 0.38340214 0.11741628 0.27121183 0.113532946 0.34485644 0.5820556 0.3541361 0.41565928 0.25401348 0.18537232 0.30050522 0.3723982 0.16720471 0.55919474 0.38284397 0.3988312 0.32704687 -0.0002228748 0.23123679 0.3240579 0.3971009 0.44811565 0.43797064 0.0018593073 0.36714196 0.5308261 0.40112507 0.38361847 0.40629685 0.26067138 0.05956819 0.1637044 0.21563828 0.4563784 0.37387013 0.25462967 0.2497522 0.18492423 0.42333525 0.42271286 -0.08811809 0.36412936 0.42595655 0.4120717 0.07189098 -0.17704819 -0.2963796 -0.40510094 0.29678357 0.24938995 0.12365658 0.18070023 0.34904444 0.4707495 0.34592947 0.35957044 0.33077344 0.23021835 0.014667042 -0.16694085 -0.29563636 -0.31572688 0.21349816 0.3239022 0.3801101 0.24972513 0.1301676 0.06756588 -0.029770914 -0.04187154 -0.21968696 -0.10371295 0.3038131 0.32003027 0.46871775 0.74896485 -0.10800149 -0.2861483 0.15643167 0.25011232 0.661705 0.7277343 0.7091804 -0.20433697 -0.1277758 -0.017993428 0.4865083 0.60120404 0.66821325 0.6753065 0.21954279 0.17367178 0.14405188 0.5662345 0.660292 0.32736588 -0.11752516 0.14999759 0.5228882 0.5749297 0.48662934 -0.13647911 0.359112 0.39984202 0.6210109 -0.1170089 0.0025082976 0.075954035 0.3709355 0.636618 -0.07810363 -0.030277377 0.26304302 0.33120054 0.64758706 0.62383896 -0.016694535 -0.15115762 0.24821368 0.33446068 0.20723882 0.5958593 0.55479735 0.13805084 -0.20556763 -0.13891491 0.34371853 0.005488068 0.122792184 0.19976525 0.16168976 0.3087137 0.37380856 -0.0026741251 -0.058429465 0.067671716 0.27281243 0.09109788 0.3299391 -0.23126973 0.16686668 0.21831526 0.26452288 0.32109386 0.20080571 0.33364362 0.34404832 0.20638664 0.3447854 0.34411788 0.321659 0.21140176 0.12640086 0.0072765127 0.18912567 0.21247043 0.22540943 0.30374062 0.22017884 0.26771176 0.31972083 0.35515723 0.42481473 0.50236505 0.47791278 0.51280445 0.5340419 0.40038025 0.42392233 0.52809423 0.5545672 0.56234753 0.66175294 0.37161446 0.38054034 0.44270575 0.54086614 0.59817386 0.5765065 0.55133426 0.54011464 0.6185199 0.6395581 0.66871566 0.714568 0.27299592 0.20347755 0.25930578 0.31636086 0.57469785 0.5165498 0.34263104 0.4114896 0.6124191 0.65284526 0.4420058 0.41380948 0.3535759 0.1082655 0.05370442 0.2270101 0.23319495 0.38667268 0.46400982 0.38836548 0.60158765 0.39307207 0.42837054 0.40050864 0.34875584 0.32510704 -0.18688199 0.100174874 0.35376185 0.6536962 0.36791754 0.19018358 0.08037368 0.08719948 -0.06628952 -0.2847802 0.049078804 0.33883816 -0.15349373 0.05815737 0.23280925 0.31859282 0.36464208 -0.067793675 0.51284534 0.2902856 0.20518613 0.38572294 0.49397877 0.35330367 0.40896058 -0.21840377 0.22702129 0.18893981 0.41592467 0.41285634 -0.5923329 0.23655732 0.3962865 0.3398447 -0.038098484 0.24748425 -0.057916187 0.25391126 0.003540188 -0.12963152 0.17462765 -0.22380386 -0.046127204 -0.040686443 -0.054322675 -0.060902216 -0.10553246 -0.22204775 -0.059201322 -0.05361335 -0.08023883 0.17932422 -0.102437265 -0.11174072 0.26365903 0.3658331 0.5291708 0.3407905 -0.21906798 -0.13221118 -0.088851735 -0.11112723 -0.11882123 0.054126423 0.15410136 0.179063 0.64450777 -0.22211812 -0.11624229 -0.09244352 -0.15422237 0.7106026 -0.16075432 -0.16681075 -0.1819752 -0.19343312 -0.08029868 0.16736203 0.7023915 0.6346754 0.47131842 0.035592925 -0.08736376 -0.19034848 0.1792535 0.08283159 0.12633082 0.14824708 0.58140415 0.01253169 -0.1800766 -0.115318716 0.069057226 0.102733605 -0.07307899 0.09953429 -0.15213783 -0.20881498 0.1452139 0.17185327 0.2585184 0.20664904 0.27889568 0.32268542 0.23411052 0.29949597 0.32592094 0.27318826 0.22028747 0.3174405 0.28697354 0.31939933 0.17591211 0.43729174 0.19958322 -0.10532148 0.20788069 0.39521623 0.22357441 0.2917036 0.051918503 0.2839352 0.3065047 0.4627121 0.32443586 0.4432915 0.49415773 0.5332982 0.32693124 0.34689826 0.37189317 0.39381182 0.44775802 0.5221915 0.5592917 0.57062703 0.3870365 0.35144347 0.31855908 0.31344306 0.34312817 0.54694664 0.3719412 0.3710634 0.46891582 0.57360566 0.36099285 0.37234032 0.32177782 0.26839352 0.3300607 0.35827887 0.43740588 0.49039924 0.49958906 0.3780068 0.41773272 0.26330703 0.2887138 0.4818443 0.36546624 0.007425703 0.05180587 0.051149346 0.43953183 0.27678388 0.3118918 0.0036895815 0.045030423 -0.029004171 -0.030419562 0.40499604 0.24363479 -0.1485683 0.1748603 -0.14602208 0.22108692 0.21628515 0.18793842 0.22123414 0.33206397 0.12170971 0.39067328 0.15879217 0.63129056 0.6426232 0.6220787 0.623844 0.6563585 0.6829176 0.66614985 0.17531621 0.19649194 -0.02128046 0.11855072 0.60267484 0.668628 0.71252435 0.6475141 0.42892784 0.18524653 0.116089664 -0.040883284 0.09845525 0.56023365 0.60644746 0.6764579 0.6735749 0.57117045 -0.104724124 -0.04152008 -0.07439043 0.07757679 0.5558404 0.63856065 0.6540154 -0.046439137 -0.1880417 -0.091663666 -0.06900701 -0.050692104 0.06263611 -0.13653389 -0.14085375 -0.15311876 -0.123335995 0.009747528 0.61490774 -0.2350853 0.6996476 0.71162176 0.63787603 0.48962152 -0.47067735 -0.25170735 0.11253681 0.12167555 0.632881 -0.43335333 -0.35095584 0.09089954 0.12952252 -0.21192524 -0.18241252 -0.033266403 0.023521021 0.26946163 -0.2145778 0.053787664 0.19724655 0.18139973 0.26286474 0.22496969 0.24517903 0.29006693 0.28368726 0.30506206 0.29571453 0.24510464 0.118615225 0.3768767 0.51671547 0.12143242 0.3715734 0.5413295 0.08372985 0.20553002 -0.031952564 -0.11805059 0.3145784 0.47968304 0.552242 0.17986463 0.2444101 0.29009503 0.23417142 0.24269982 0.3279527 0.428366 0.51105 0.5602029 0.4066198 0.3947012 0.3605972 0.30331957 0.31335056 0.27774432 0.5866816 0.44493318 0.40150645 0.4100499 0.38152325 0.32936415 0.31174323 0.53374815 0.40281487 0.41500762 0.30840147 0.34823182 0.38931453 0.37749663 0.2230251 0.181124 0.31994176 0.15859383 0.06797013 0.21440506 0.14922296 0.34370986 0.35314167 0.27496243 0.30288687 -0.051956773 0.022311788 0.07336263 -0.010909308 0.24653567 0.29954636 0.23825215 -0.017679334 -0.017196275 0.012332052 0.31509656 0.16605182 0.30412292 0.102273725 0.19631684 -0.033400856 0.026670028 0.05299165 0.048997875 0.5427557 0.58521605 0.559798 0.5136759 0.11081521 0.23602408 0.21994641 0.53133714 0.5691068 0.6067968 0.499796 0.559178 0.12374279 0.1531442 0.4892137 0.51617366 0.5616213 0.10052877 0.05223597 0.0939715 0.45879424 0.5195476 0.56758356 0.5230595 0.044603404 0.011749022 -0.007006717 0.07803344 0.5164825 0.58085734 0.6001502 0.02923587 0.040198147 0.021850675 -0.019224048 -0.02732259 0.013393626 0.5733398 0.042835593 -0.40230727 -0.16479415 0.06599997 0.045880966 0.13322352 0.04039926 0.061409555 0.32159433 0.32174367 0.0902331 0.36711344 0.3742593 0.3163981 -0.11926197 0.25244236 0.3775459 0.35637382 0.23887429 0.1545122 0.290847 0.31938893 0.14796236 0.2325337 0.31883603 0.23403077 0.1904363 0.3478673 0.77238774 0.7918854 0.17081797 0.48165327 0.7683275 0.8365223 0.8561265 0.79079807 0.0852876 0.053732626 0.0034056231 0.5739958 0.819897 0.84484637 0.83515716 0.784922 -0.06329332 0.5805104 0.58194923 0.80837226 0.7996733 0.77855515 -0.02473178 -0.15063664 0.30534208 0.5282591 0.56298256 -0.037092347 0.25525492 0.19261044 0.2031803 0.25729254 0.33908767 0.46669525 0.54522717 0.40751863 0.39978504 0.36529896 0.24944654 0.25233412 0.55417275 0.4997964 0.53979474 0.4036955 0.41391253 0.5208815 0.5058825 0.38321882 0.4331203 0.4563696 0.51730967 0.32660347 0.35183737 0.38736668 0.30995432 0.32400268 0.18283701 0.2219257 0.2709516 0.064976074 0.04765712 0.21276425 0.021511242 -0.023816202 0.11486077 0.18721984 0.16908026 0.0764711 0.21191132 -0.13438909 0.39735246 0.421414 0.4361541 0.004082933 0.070380546 0.053498 0.43280375 0.48048127 0.07172643 0.45817623 0.4514644 0.05676446 0.39677173 0.42436117 0.056769326 0.3534527 0.41301954 0.34335303 -0.004763752 -0.004264556 0.039676476 0.062076144 0.41834062 0.4603873 0.46453005 0.47588605 -0.05920074 0.01046012 0.0120219365 0.0033542402 0.019921646 -0.059293494 -0.00032852963 0.009894837 0.029495146 -0.10355152 -0.003962569 0.028765948 0.23623288 0.036304627 0.30982345 0.32839888 0.2040888 0.34748173 0.3814006 0.26078266 0.2870121 0.35157877 0.3597359 0.31227142 0.13433285 0.09777431 0.30729192 0.59541047 0.5095215 0.34490308 0.5752084 0.69535863 0.120690726 0.44149864 0.5752155 0.6933651 0.6219518 0.10682517 0.5424021 0.7702689 0.7383957 0.665834 0.08104787 0.05536834 0.56716335 0.5693341 0.74691385 0.7631156 0.7642801 0.7295269 0.6656573 -0.00744047 0.45863938 0.5580962 0.72552216 0.7259125 0.24691004 0.40057585 0.40910062 0.35197914 0.27331686 0.4007788 0.39379096 0.31418112 0.32485774 0.16831374 0.15079868 0.22229517 0.27236688 0.38495952 0.36889526 0.29706758 0.2812037 0.22477987 0.14117098 0.43060276 0.51672673 0.52995443 0.35762578 0.3589935 0.3494946 0.27024245 0.16448675 0.45979688 0.24424784 0.28558087 0.018736258 -0.021412877 -0.027885873 -0.03951121 0.260756 0.108267955 0.1892521 0.0129669085 -0.019034285 -0.027002126 0.11166553 0.12998089 0.0620486 0.030995838 0.12143783 -0.009055406 0.11128391 0.05490047 0.037218187 -0.352269 0.06046819 -0.036460318 -0.08565901 -0.60884815 0.07102887 0.275649 0.25737268 0.006990567 -0.7126366 0.1215335 0.34764743 0.32935697 0.16448838 0.34168446 0.25689816 0.22691223 0.31221497 0.39158493 0.21397725 0.2115816 0.10293752 0.29674494 0.37422353 -0.13512266 0.07217367 0.3586492 0.4171892 0.22381334 0.21516654 -0.096240945 0.027813572 0.30459648 0.28635067 0.19258663 0.004812792 0.0008994341 0.05044064 0.017686494 0.18107517 0.07631786 -0.039034933 0.017728597 -0.16324627 -0.094783 0.0035498291 0.20340417 0.2565833 0.112052545 0.2600065 0.12587215 0.2100983 0.23236781 0.30586493 0.29674426 -0.04347109 0.2704259 0.35032475 0.43717796 0.4704038 -0.022872329 0.34556964 0.40641522 0.4576438 0.45250297 0.4918997 0.62202054 0.5807228 0.06910377 0.5143526 0.66539985 0.67359257 0.67026806 0.53522956 0.06427165 -0.021653477 0.20784783 0.5030041 0.6687124 0.6712197 0.26580775 -0.007889122 0.42798677 0.2834248 0.19035688 0.44427216 0.44280183 0.39967978 0.3308422 0.3341265 0.34513748 0.35192007 0.35681647 0.22639218 0.27657583 0.33678895 0.1522333 0.09167433 0.1638389 0.46112138 0.26332256 0.22410972 0.21531838 0.18893552 0.17445603 -0.020414356 0.1702188 0.23973504 0.03801599 0.1878508 0.022636726 -0.13738318 -0.10609521 -0.08858985 0.27947658 0.14029521 0.10365171 0.07334139 0.25558928 0.14907083 0.13528119 0.42032212 0.37377205 0.3047521 0.18805757 0.10047617 0.13044567 0.42358866 0.383082 0.2473802 0.11218235 0.41820055 0.3129449 0.27073044 0.09189691 -0.3825986 -0.37531888 0.08487666 0.06648044 0.08304299 0.0042667165 0.18100968 0.1713891 -0.40991154 0.16555683 0.23417777 0.27186945 -0.63745147 0.3182037 0.23684166 0.33295083 0.2425009 0.31389722 0.19347088 0.35434955 0.38739872 0.15019631 0.25625432 0.6422882 0.42897183 0.047041 -0.10203592 -0.07531405 0.29029083 0.73069566 0.7196691 0.5297698 0.24327995 0.11802958 0.13548958 0.005379875 0.101828545 0.022647556 0.68168557 0.5904429 0.4262228 0.19426793 0.18044715 0.02843798 0.21669975 0.13333264 -0.14163947 -0.0153931845 -0.052922633 0.1148635 0.15559667 0.17104429 0.1053395 0.07363856 0.067437224 -0.09046742 0.14878517 0.2532913 -0.077025406 0.25673193 0.36130238 0.2099241 -0.13557981 -0.11347786 -0.16353485 0.40393698 0.5124239 0.3819942 -0.021873564 -0.14703263 0.25996757 0.5609341 0.5680631 0.5380589 0.08604661 0.5452471 0.55877006 0.2845812 0.40111083 0.08467815 0.06383742 0.4725951 0.4580971 0.399971 0.27601 0.1819843 0.48731047 0.47556597 0.4941259 0.43911895 0.39437124 0.41429853 0.39833966 0.37683102 0.31471056 0.3331219 0.38853502 0.48984408 0.53099006 0.59695524 0.101541 0.25086603 0.3402846 0.3580883 0.40333533 0.13557397 0.14802194 0.028488781 0.1997007 0.114569485 0.05980493 -0.03982813 -0.054752488 0.079364814 0.09126464 0.069224894 0.25169656 0.22062284 0.1728456 0.04529264 0.3256089 0.24686511 0.06732351 0.090896256 0.4152219 0.37896782 0.06533706 0.43532133 0.058869943 0.42678767 -0.33114743 0.025800096 -0.62427086 -0.33523571 -0.29141742 0.09332203 0.03351