# vtk DataFile Version 2.0
Really cool data
ASCII
DATASET POLYDATA
POINTS 8042 float
-7.562265 30.89685 80.78169
-7.5621905 30.922182 81.62253
-7.6159368 31.341066 80.68531
-7.617102 31.343548 81.36264
-7.5717535 31.431284 82.092
-7.555329 31.900848 81.37078
-7.5850363 33.838 70.89818
-7.625471 33.894394 71.385124
-7.6309824 33.99879 72.20701
-7.663905 34.557133 70.922226
-7.796954 34.521355 71.59449
-7.8096943 34.559277 72.1322
-7.9239144 35.22359 75.79007
-7.8841996 35.073666 76.64078
-7.6785536 35.03338 71.054695
-7.7117276 35.223763 71.50584
-7.764501 35.218086 72.08686
-7.9438066 35.913773 75.2076
-8.101972 35.77437 75.694496
-8.160129 35.655777 76.42542
-7.923998 35.624043 77.05519
-7.6500473 35.504433 82.633255
-7.6305785 35.636097 83.206314
-7.8949046 36.218315 75.2188
-8.18351 36.315517 75.79311
-8.20607 36.393795 76.37638
-7.964432 36.43545 77.007355
-7.6405125 36.321247 82.58569
-7.6857324 36.183643 83.06932
-7.871984 37.027344 75.82888
-7.90456 37.04933 76.37036
-7.8601885 37.021873 76.82581
-6.9781623 30.1319 80.09454
-7.1334596 30.069529 80.62395
-7.1524405 30.111872 81.38557
-6.8881516 30.164469 82.17286
-7.109889 30.648756 79.91832
-7.420786 30.497774 80.623634
-7.4190083 30.448975 81.42361
-7.3208833 30.750765 82.32246
-7.0488095 30.905357 83.059715
-6.777499 32.30102 70.72992
-6.797271 32.28604 71.03624
-7.2698994 31.33555 80.034164
-7.4707875 31.576456 80.59253
-7.443504 31.32875 82.517105
-7.08146 31.543055 83.25745
-6.769292 31.343239 83.66534
-6.8556557 32.83606 69.97465
-7.050922 32.66582 70.63251
-7.1437554 32.829067 71.32268
-7.1958227 32.213356 80.61817
-7.192123 32.599197 81.41079
-7.212495 32.13114 82.642075
-6.869751 32.758854 83.04111
-6.995405 33.437794 69.86771
-7.387525 33.51339 70.62569
-7.48259 33.552715 71.415115
-7.312253 33.682888 72.29869
-7.239876 33.937233 72.83207
-6.761351 33.325813 80.711136
-6.6845007 33.41159 81.13798
-7.1508884 32.863194 82.102455
-6.760857 33.898678 83.101135
-7.035065 34.408844 69.83172
-7.451379 34.744072 70.510345
-7.137038 34.54332 73.09485
-7.4770904 35.25499 75.2838
-7.2268105 34.714855 75.54074
-7.4184995 34.633404 76.70013
-7.417995 34.781742 77.1727
-7.2198 34.907616 82.12309
-7.347871 34.825066 82.38876
-7.1321235 34.510117 83.28709
-6.9595327 35.03238 84.4414
-6.8449125 35.12443 84.79774
-6.926849 35.434864 69.95322
-7.448445 35.316048 70.7988
-7.4253645 35.513035 72.48452
-7.485228 35.58381 82.088165
-7.5223274 35.225254 82.83295
-7.4212117 35.214622 83.522964
-7.2104616 35.444794 84.20561
-6.654497 36.159084 86.35835
-6.702023 36.261044 69.876526
-6.880719 36.517056 70.623375
-7.1778316 36.13949 71.35185
-7.3767066 35.81503 72.483025
-7.491044 36.583073 77.57775
-6.883769 36.746864 78.01391
-7.3330297 36.357327 81.79709
-7.4920406 36.660507 82.258766
-7.435197 36.010258 83.729
-7.3798747 36.196297 83.85095
-6.705982 36.254868 85.3873
-6.8281717 37.105656 86.77523
-6.730261 36.848423 87.14994
-6.788365 36.815895 70.59126
-6.698392 36.90796 71.17394
-6.9185176 37.6112 75.06312
-7.4742465 37.53929 75.741516
-7.5157022 37.44227 76.67149
-7.084899 37.46167 77.2239
-6.943895 37.188213 81.67147
-7.387704 36.943638 82.53269
-7.223653 37.092743 83.30075
-6.931254 37.350227 83.919044
-6.8713403 37.459778 86.69365
-7.0107136 37.60579 87.69939
-6.856337 37.771057 88.4963
-7.1481934 38.051205 75.76408
-7.0417585 38.137547 76.389984
-7.0339932 37.981716 76.88726
-7.046731 38.402443 86.96776
-7.1871777 38.67485 87.50577
-7.1636195 38.763123 88.57917
-6.8370366 38.58185 89.07926
-7.259265 39.260635 87.686424
-7.218667 39.454548 88.66736
-7.0772967 39.5668 89.217766
-7.1095 40.085888 87.78895
-7.1879983 40.393673 88.50309
-7.059702 40.38054 89.17066
-6.6936374 40.06396 89.85332
-6.6710896 42.22719 82.83712
-6.8065314 41.82112 83.87941
-6.899576 41.90304 84.4461
-7.0005164 40.86561 87.936554
-6.868266 40.948574 88.754845
-6.917083 40.794113 89.00696
-6.803583 42.512123 82.77655
-6.9774566 42.65032 83.60086
-7.0227003 42.414177 84.43156
-6.8153996 42.846733 85.44979
-6.7166357 43.52845 82.07529
-6.897823 43.467495 82.56877
-6.995779 43.385498 83.30098
-6.9533224 43.28487 84.599174
-6.8186235 43.3143 85.252594
-6.6654367 43.279568 85.781136
-6.683893 44.01556 82.115326
-6.7809043 44.005363 82.574394
-6.728435 44.12933 83.403435
-5.717672 30.218521 75.02363
-6.727178 29.977303 80.02973
-6.594658 29.688366 80.72083
-6.7579446 29.817825 81.43349
-6.4238405 29.95107 82.2506
-6.4996405 30.362207 83.24665
-5.740517 30.31739 83.754105
-5.971573 30.743025 74.873314
-5.972499 30.594961 75.56057
-5.978272 30.742168 76.16117
-5.8629904 30.61494 79.191345
-6.5950456 30.27889 79.56082
-6.46703 30.637674 83.58907
-6.2447667 30.917397 83.77835
-6.3087296 32.275574 69.96178
-6.44419 32.11982 70.53305
-6.3705354 32.129276 71.16765
-6.022144 31.358084 74.49589
-6.2505093 31.530882 75.69356
-6.1183624 31.158295 75.99072
-6.3666673 31.853914 79.052826
-6.465971 31.380554 83.7798
-5.9135313 32.801327 69.33969
-6.389518 32.691944 69.6878
-6.6050215 32.83232 72.13973
-6.1383886 32.24733 75.47414
-6.0976524 32.581234 76.10308
-5.8948083 32.181213 77.37492
-5.982509 32.439785 79.0283
-6.0821304 32.67482 83.49383
-6.3851967 32.019894 83.79143
-6.2343388 33.60275 69.17806
-6.5879064 33.17582 69.53103
-6.738675 33.678394 72.92298
-5.989337 33.760853 75.66328
-6.364745 33.896145 76.796745
-6.3283286 34.095604 77.659035
-6.504769 32.849457 79.87815
-6.4507546 34.29701 84.34605
-5.92726 34.52981 68.881134
-6.6222 34.3898 69.43504
-5.7661185 34.20808 74.742256
-5.9382596 34.82982 78.44074
-6.159017 33.852203 80.15624
-6.4522715 34.391716 84.354515
-6.164458 34.785458 85.12523
-5.9359846 35.150745 86.39288
-6.127408 35.418354 69.04078
-6.5612855 35.524883 69.44206
-6.2815223 35.894314 78.396675
-6.027126 35.600643 80.08339
-6.4912376 35.491352 85.43151
-6.291421 35.737946 86.45423
-6.024956 36.017506 87.3939
-5.8726897 36.14934 69.09721
-6.443942 36.570297 69.70092
-6.3445168 36.462345 87.52644
-6.1476293 36.525795 88.074776
-5.988362 37.101727 89.10298
-5.5209904 36.772663 92.256195
-5.653078 36.974194 68.88491
-6.148536 37.10595 69.699135
-6.3350444 37.269417 70.50345
-6.439775 37.16474 71.341835
-6.2075715 36.86626 74.16749
-6.4274163 37.57828 74.7783
-6.15171 37.274097 80.11592
-6.5393 37.39623 83.93711
-6.4968333 37.177086 85.68458
-6.5916734 37.425186 88.76199
-6.243782 37.68086 89.32866
-5.543924 37.51912 91.882774
-5.5380754 37.293163 92.06257
-6.663253 38.519073 75.58682
-6.655555 38.55607 76.31818
-6.43141 38.40943 77.15309
-6.0713716 37.970642 77.83493
-6.16399 38.018745 80.78709
-6.1521435 38.125114 82.34389
-6.199529 38.351505 84.31
-6.538777 38.423504 89.44588
-6.2727633 38.84431 75.70437
-6.262875 38.867805 76.19467
-6.305582 38.679783 76.94975
-5.753114 39.60354 83.16141
-6.246571 39.897614 84.653076
-6.461938 39.75673 90.01389
-5.5115557 40.85184 72.12835
-6.1510134 40.531624 83.46522
-6.334305 40.71315 85.07215
-6.4502463 40.4779 86.290375
-6.1645074 40.47095 90.07319
-5.5505238 40.946865 72.24045
-6.281749 41.808765 82.75698
-6.6131 41.244892 88.80067
-6.2576 41.375793 89.1821
-6.01617 40.995876 89.95404
-6.1323643 42.951458 81.690155
-6.307252 42.312756 82.42823
-6.289337 41.773552 87.5197
-5.993532 42.017677 88.06824
-5.761528 41.709312 89.45071
-6.438951 43.491093 81.75584
-6.558466 43.64938 85.56737
-6.3798666 43.321804 86.000565
-6.1818566 44.060165 81.778435
-6.4360676 44.423805 82.51059
-6.464893 44.38247 83.608864
-6.351155 44.171303 84.6978
-6.299932 43.977737 85.32809
-5.9434466 44.668552 82.02041
-5.909953 44.834072 82.39913
-5.9928203 44.763218 83.30939
-4.6942544 28.77316 79.67414
-4.773628 28.554497 80.377785
-5.136611 29.884651 74.9511
-5.3879676 29.967888 75.65987
-5.1217537 29.787739 76.15583
-4.957692 30.06061 78.020454
-4.898977 29.68202 79.06578
-5.8045526 29.664988 79.87553
-5.412295 29.734364 81.91528
-5.4709105 30.137789 83.36301
-5.0314465 29.834711 83.91754
-4.698925 29.941156 85.04072
-5.2384768 30.896461 73.9449
-5.470247 30.487253 74.42138
-5.56088 30.328075 76.53336
-5.437742 30.581448 77.01106
-4.8681483 30.511631 85.1128
-5.5014157 32.34998 69.71106
-5.105902 32.043438 71.25457
-5.21868 32.244637 73.074814
-4.775755 31.032612 85.37928
-5.3242726 32.954567 69.08948
-5.3173876 32.54302 69.39004
-5.4263296 32.559475 72.40191
-5.5784545 32.607277 84.10331
-5.603166 33.428043 68.95215
-5.266638 33.748848 85.021286
-4.764244 34.25757 86.01203
-5.2026477 35.00409 68.41019
-5.4615316 34.316547 68.60889
-5.1803894 34.77328 86.35659
-5.6340694 35.294834 86.92635
-5.138204 35.474396 68.23745
-5.4510746 35.6375 68.51387
-5.389081 35.828033 87.5365
-5.0487456 35.98737 91.04616
-5.0125837 35.802563 91.81228
-5.042854 35.93038 92.57101
-4.8536167 35.915047 93.11366
-5.0036874 36.40938 68.03702
-5.456675 36.37813 68.46331
-5.2011924 36.763817 89.4393
-4.8015113 36.514423 90.56509
-5.3879905 36.399513 91.96384
-5.4106803 36.669994 92.497154
-5.0068946 36.469646 93.198784
-4.864562 37.39791 67.87603
-5.260629 37.453545 68.55497
-5.424523 37.530113 72.17213
-5.429073 37.283512 92.46478
-5.1624503 37.344425 93.08525
-4.7205067 37.984253 68.16586
-5.156009 37.805714 68.50817
-4.958674 38.242603 69.80992
-5.4408216 37.696457 71.446236
-5.386462 38.26176 78.46359
-5.3822184 38.09094 91.69961
-5.393335 38.027298 92.11292
-5.048844 37.981895 92.976364
-4.7707257 39.485847 72.63973
-5.6023283 38.79168 75.23597
-5.6134305 38.980503 75.652466
-5.4593697 38.946487 76.66176
-5.0451484 39.140404 77.408005
-4.998252 39.46142 78.64271
-4.938111 39.545586 79.30317
-5.0086756 39.085575 80.14596
-5.1033664 39.48766 91.032776
-4.9800625 38.688824 92.05802
-5.439896 40.638756 71.52303
-5.428837 40.79935 72.431526
-5.029097 40.589027 73.07855
-4.721594 40.46046 78.50586
-4.832227 40.41008 79.27931
-4.9281273 40.14379 81.85496
-5.37723 40.195805 82.575806
-5.5570126 40.66226 90.49405
-4.9758635 40.479366 90.85756
-4.956239 41.43266 70.84746
-5.3097095 41.281124 71.50411
-5.3252788 41.38869 72.22046
-4.862291 41.500015 72.923355
-4.5859194 41.243767 79.26549
[...]
POINT_DATA 8042
SCALARS features_00 float 1
LOOKUP_TABLE default
0.61071515 0.6145909 0.57874525 0.5897673 0.5774654 0.5333405 0.5901308 0.5837309 0.57454926 0.554722 0.5710895 0.5755822 0.6100631 0.5965017 0.5260023 0.52441436 0.54876196 0.6558938 0.6819463 0.68568575 0.67530936 0.41384646 0.40856194 0.6689234 0.6989695 0.69007415 0.6563579 0.43526375 0.4355871 0.62890875 0.60952437 0.5882851 0.5216549 0.57956946 0.6134018 0.58070767 0.55321383 0.6089452 0.6234499 0.5993341 0.5253327 0.61548114 0.59188294 0.54919773 0.545761 0.5679791 0.4840358 0.43322563 0.6189444 0.62731934 0.58674234 0.4514079 0.4372441 0.48297966 0.32578552 0.6006379 0.6090332 0.5876187 0.5583167 0.5327052 0.28678477 0.25639024 0.3779162 0.1738734 0.5175248 0.52699625 0.5040849 0.5256228 0.41181844 0.44682598 0.47051507 0.3203176 0.33859116 0.27600968 0.23818648 0.20249987 0.44020393 0.49651042 0.5274505 0.39829507 0.38949484 0.35557356 0.3147725 0.20006144 0.39652914 0.4345597 0.45492285 0.47852543 0.57019114 0.46706945 0.39856458 0.42177743 0.4116245 0.4128691 0.21280424 0.2570864 0.2586517 0.42114672 0.41797498 0.5283532 0.547591 0.52316606 0.46058854 0.32888812 0.41504735 0.41493168 0.35651055 0.2661047 0.32008424 0.335644 0.4891677 0.45355555 0.4385597 0.32241598 0.38798693 0.44530845 0.43564263 0.43949193 0.5021328 0.5138011 0.46497703 0.49254572 0.48836 0.45651868 0.42566764 0.35256723 0.39597964 0.44287217 0.4517706 0.4622332 0.49360016 0.5301877 0.4994805 0.46346414 0.58221936 0.61578524 0.6218911 0.57275665 0.51235276 0.43369406 0.58759314 0.61711264 0.6296825 0.3565004 0.45506275 0.48844522 0.57739997 0.5187843 0.4381117 0.2943962 0.3653898 0.38756514 0.37530053 0.2495974 0.40446514 0.40620452 0.3593301 0.5947975 0.6043793 0.5497307 0.31443202 0.35670906 0.37327862 0.39681393 0.38466084 0.5189017 0.58291215 0.4766581 0.24303743 0.1170446 -0.005974941 0.25998506 0.25155258 0.34459078 0.49322712 0.56913924 0.45866978 0.04490757 0.16654825 0.22468883 0.32354182 0.13363633 0.3926177 0.47144878 -0.038380146 0.2818847 0.1500946 0.1454238 0.103323445 0.10753189 0.34616083 0.3822323 0.41496658 -0.0359597 0.16106376 0.17168579 0.20432478 0.32156152 0.3649125 0.23753662 0.22003692 0.16852616 0.66987634 0.3104926 0.33937752 0.37928933 0.38938838 0.44450563 0.5035361 0.11084834 0.32002598 0.20036647 0.2847621 0.2650047 0.60803676 0.6452192 0.44939005 0.4107827 0.34811068 0.27048713 0.08436595 0.17097291 0.042447224 0.39641684 0.40387428 0.37538236 0.33971986 -0.06976307 0.039037988 0.42642608 0.50193197 0.09936707 0.13043545 0.24835104 0.37848428 0.50417215 0.29683185 0.4218715 0.4022109 0.3784614 0.47841957 0.40824002 0.30828783 0.30629 0.36999142 0.54244405 0.46337688 0.39219308 0.54329395 0.58308494 0.6059341 0.5357128 0.47440332 0.54091823 0.5388813 0.5560261 0.08562147 0.18662438 0.3030059 0.31941247 0.2528008 -0.051538054 -0.08841069 0.16187918 0.3564548 0.28113765 0.21379428 0.32376096 0.11767867 0.2745871 0.31948885 0.27000624 0.29049113 0.5172835 0.42830503 0.00873208 0.25836447 0.43949676 0.46936962 0.30251902 0.083357036 0.44148558 -0.07008907 -0.0913274 0.3179701 0.3749649 0.005849138 0.12006986 0.30027056 0.31045663 0.16110238 0.34958184 0.5288317 0.65075195 0.67877805 0.32455122 0.3141811 -0.008861162 0.19641773 0.6178301 0.6916091 0.7280438 0.35690105 0.32124653 0.19417198 0.6809723 0.71516675 0.34593344 0.3193738 0.2668934 0.31609732 -0.013802767 0.5123284 0.582263 0.62933564 0.36686167 0.36621284 0.34628934 0.28763413 0.09935092 -0.10713478 -0.10952555 -0.15041177 0.17695668 0.42923662 0.46012825 0.50070417 0.46606565 -0.04939776 -0.047306344 -0.10773176 -0.02660568 0.29824167 0.21672119 0.3891385 0.4600594 0.4804154 0.4628608 -0.042600926 0.013215542 0.1214744 0.3611069 0.32776994 0.26145375 0.3954449 0.4268691 0.4439721 0.29967904 0.33572987 0.36852014 0.22967075 0.13553055 0.24600232 0.28847268 0.30456102 0.48832077 0.4006518 0.34024376 0.4192062 0.43844074 0.49314463 0.469859 0.48508275 0.46196166 0.40940046 0.49435586 0.50316066 0.5418929 0.64861655 0.697573 0.6523973 0.40622842 0.44495538 0.5099204 0.55380136 0.51806414 0.8125012 0.5235981 0.52443564 0.3340026 0.344286 0.37107506 0.44409782 0.2972273 0.78504825 0.7872628 0.44732615 0.49016076 0.45431322 0.28234062 0.18694943 0.24500346 0.09233082 0.2488937 0.38795626 0.34825101 0.3405282 0.24265838 0.13993445 0.0012134016 -0.041937087 0.28432614 0.39865413 0.45314306 0.26761472 0.29682386 0.07558837 0.34062958 0.40408075 0.42363763 0.4459048 0.2645313 0.28945774 0.31706163 0.004219208 -0.08437267 -0.11477652 0.28934485 0.28488535 0.3071996 -0.1452107 0.24670027 0.2721976 0.30691707 0.15875655 0.22630993 0.34969854 0.54610705 0.09078554 -0.003483599 0.5980271 0.6426574 0.6701756 0.35768422 0.7174983 0.72454846 0.37023294 0.69597745 0.69916815 0.3643409 0.58412695 0.15806583 0.33647436 0.17115413 0.2772614 0.44971025 0.12677446 0.31104746 -0.06195677 0.15280578 0.414984 0.32189164 0.2580514 0.42313966 -0.0787978 -0.042958472 -0.07312756 0.23163976 0.4716035 0.38707325 0.26917118 0.32112652 0.30089125 0.39378488 -0.09980827 -0.10006803 0.31848037 0.48033506 0.26245728 0.2389912 0.28617567 0.07567688 0.051787775 0.036288485 0.19116677 0.28328547 0.15207112 0.22239655 0.24359275 0.22955528 0.3299451 0.45515043 0.37641516 0.3940316 0.3718351 0.39301682 0.3110864 0.3962245 0.48347515 0.5320965 0.5380661 0.4689988 0.284604 0.21264148 0.35998383 0.48194885 0.5438294 0.58571684 0.58530515 0.5568477 0.6082512 0.5992694 0.8051089 0.8541319 0.853863 0.60951585 0.71687734 0.7622614 0.76216877 0.8194319 0.8340522 0.8400779 0.836094 0.57270867 0.56496423 0.51948404 0.40827855 0.48841515 0.6056899 0.8159392 0.82039917 0.8279959 0.8284478 0.5615081 0.56679386 0.5559063 0.4782483 0.36404628 0.2837368 0.7375588 0.7704711 0.79143 0.795059 0.50463295 0.23607343 0.004744306 0.08684626 0.3275804 0.4156495 0.45078796 0.63483346 0.5916135 0.66527367 0.3733214 0.4596451 0.44203037 0.24632779 0.43636435 0.21503668 0.3156609 0.3054822 0.1452703 -0.060053054 0.31242877 0.29847515 0.2835506 0.25308105 -0.17820244 0.27032232 0.33081672 0.21564579 0.43618774 0.5711597 0.5753762 0.61244875 0.33518028 0.34516865 0.6815672 0.33817232 0.6360527 0.3135604 0.41307467 0.45588344 0.14971474 0.23838522 0.1552476 0.27397117 0.29026556 0.41197205 0.31173545 -0.20620985 0.4839682 0.39951056 -0.08568803 -0.0973491 0.22652917 0.5598492 0.50735515 0.23146087 -0.050947316 0.00875783 0.030603617 0.25733936 0.6047963 0.5718547 0.45891598 0.23460367 0.1745188 0.13336557 0.06276449 0.08461869 0.06892648 0.14012064 0.25265995 0.61553955 0.567837 0.4922329 0.28447717 -0.05591929 0.11477326 0.12737319 0.12970577 0.55823076 0.50252974 0.432738 0.13604838 0.14997226 0.18528223 0.16601773 0.22381292 0.30823576 0.40695757 0.20479345 0.45440143 0.55387676 0.52235353 0.40513515 0.55323946 0.6062329 0.59856224 0.55603516 0.75296223 0.8918132 0.9331752 0.89254797 0.49738178 0.61965585 0.7971785 0.7806859 0.8135468 0.82699996 0.8015694 0.7586251 0.56998205 0.54793805 0.48278692 0.42448515 0.38772315 0.5624219 0.79816675 0.76061606 0.57281554 0.46845347 0.38453287 0.3415872 0.13170713 0.2559712 0.7261944 0.70789057 0.6953086 0.78064215 0.5078418 0.17188369 -0.24024403 -0.1435827 0.403642 0.41636026 0.7130506 0.6658768 0.31689838 0.46717715 0.4876367 0.60448825 0.27885938 0.33405638 0.42742664 0.40301216 0.6710986 0.603473 0.34432414 0.38355175 0.24140966 0.11344069 0.39184773 0.31836244 0.32281813 0.31363133 0.29044983 0.26770774 0.21270564 0.26378486 0.38035652 0.24625689 0.4381845 0.30132848 0.33054253 0.37601674 0.33603305 0.3700255 0.4138534 0.5691789 0.3971263 0.38276315 0.38021696 0.28417084 0.41676527 0.16946271 0.26649186 0.3725036 0.058533862 0.26927263 0.33968952 0.15086898 0.1913106 0.46864855 0.18495348 0.5784925 0.5881189 0.20030874 0.6012416 0.61504334 -0.108186185 0.07343894 0.1341568 0.15656419 0.61032605 0.58961356 0.1458252 0.018863216 -0.16888967 -0.043130092 0.5884124 0.5527979 0.49119937 0.37695038 0.29715717 0.090149574 0.098748125 0.103503406 0.40566796 0.5064549 0.1433577 0.15320677 0.18052267 0.30364877 0.19567788 0.040000774 0.70231056 0.7021899 0.6448368 0.3588075 0.4890074 0.39214373 0.30677244 0.49618495 0.53318214 0.5759342 0.55508304 0.527502 0.722055 0.8462067 0.8761397 0.82108986 0.55110615 0.72855437 0.7012516 0.5314268 0.72961974 0.7538421 0.69970465 0.6940961 0.5067996 0.5196237 0.49451637 0.44935852 0.3783187 0.34545973 0.680825 0.5605287 0.5623249 0.535192 0.68136495 0.4738599 0.47752818 0.31931424 0.011974759 0.76739573 0.7431519 0.6622497 0.6045536 0.7460557 -0.13501903 -0.26630747 0.26106992 0.7355036 0.7143619 0.5810822 0.24785647 0.42227507 0.36638877 0.3136252 0.6651123 0.64344895 0.54252803 0.18566263 0.20739372 0.2777785 -0.0355696 0.6018757 0.56585634 0.30272815 0.1337827 0.2638375 0.12358201 -0.36872226 0.24896286 0.22504139 0.23119298 0.3227814 0.49633434 0.5613172 0.35401228 0.26331574 0.17465876 0.060630992 0.13632238 0.21466428 0.29933771 0.122643225 0.5393156 0.25573018 0.15971938 0.21094435 0.19704252 0.44831514 0.27682227 0.24988037 0.21512236 0.27553788 0.18620063 0.3256052 0.3013029 0.2506315 0.342524 0.24920912 0.35336092 0.3365564 0.49300408 0.39747733 0.3794371 0.3575058 0.28544712 0.16796532 0.62819034 0.59865904 0.50987184 0.4316256 0.3755003 0.1958471 0.2557947 0.6620797 0.62273324 0.5731739 0.49591509 0.41760314 0.39508784 0.042179253 0.07393252 0.679645 0.6647066 0.624233 0.5819121 0.16049954 0.27248114 0.54057854 0.23610488 0.28165254 0.54818153 0.047886156 0.03868977 0.16640359 0.60397375 0.12516037 0.59178483 0.5186133 0.4886027 0.408277 0.2985051 0.013084859 -0.06401585 -0.08361943 0.5160092 0.3917891 0.34667873 0.14140005 0.043462504 0.55502516 0.7061807 0.7169131 0.65239066 0.5522367 0.18930204 0.2159675 0.23289588 0.6736406 0.7699714 0.7698957 0.726778 0.37251645 0.45111158 0.4366502 0.82660615 0.794466 0.79277265 0.78854245 0.7485828 0.7528125 0.64608026 0.68267685 0.7134433 0.7317356 0.6207756 0.5312786 0.61709857 0.4533912 0.34141576 0.554883 0.63167095 0.61711156 0.43550664 0.34496897 0.39177048 0.66985667 0.5050439 0.3893153 0.21798119 0.19019368 0.6377566 0.34804064 0.38800797 0.38913268 0.34556586 0.2809107 0.007120982 -0.1617258 -0.15363988 0.07876541 0.77197963 -0.05384937 0.31686974 -0.0004896149 -0.12518656 0.6545013 0.68567264 0.074351534 0.619786 0.63166535 -0.10852265 -0.058840673 0.33514056 0.5338714 0.5395869 0.5266537 0.56051457 0.49798653 0.058771886 0.56547266 0.5492421 0.23243393 0.5255871 0.49612454 0.29575965 0.2220014 0.21043953 0.16199924 0.3716818 0.3527211 0.26028493 0.17454445 0.1769391 0.24165878 0.2505827 0.24905732 0.27650106 -0.08574912 0.47927302 0.22712097 0.11743314 0.61617637 0.2576759 0.66929483 0.67577684 0.33942857 0.06625523 0.6885638 0.6694906 0.647267 0.58215415 0.3617701 0.23912461 0.64745355 0.61952615 0.32542002 0.3122748 0.36483923 0.25846905 0.3213181 0.47507328 0.37568235 0.08194069 0.20979314 0.49297357 0.42749342 -0.28659517 0.123548016 0.016193405 0.52533996 0.4996276 0.39890176 -0.24915665 0.2817763 0.3056125 0.19085619 0.11637454 -0.040300813 0.47597477 0.63043976 0.52564454 0.19858688 0.21628924 0.218778 0.20473407 0.14419723 0.25319457 0.29880494 0.25829285 0.11957145 0.5239638 0.63698435 0.7711283 0.80170906 0.7267914 0.22914669 0.22977763 0.30429232 0.35022458 0.91326976 0.9248524 0.86293465 0.8692695 0.86248004 0.8106067 0.72637296 0.79930043 0.7902037 0.73743236 0.7072693 0.7209004 0.7358024 0.71030176 0.66955554 0.64972305 0.6340232 0.46362305 0.5062018 0.39413172 0.50708497 0.48356736 0.38521442 0.40289068 0.07893126 0.49133125 0.6431974 0.5792222 0.14184812 0.2765234 0.3295881 0.2582166 0.16375811 -0.08387473 -0.026363198 0.003473714 0.43310827 0.5179745 0.67005694 0.20978451 0.14202467 -0.16458906 -0.03703147 0.5643794 0.63497627 0.2338673 -0.31679028 0.2357884 0.3835461 0.4711768 0.5030793 0.4871421 0.5206981 0.55118173 -0.21714683 -0.27634972 -0.14963403 -0.0015325844 0.15991741 0.4491557 0.5202089 0.49720594 0.46891975 0.5110574 0.49137723 0.4472475 0.2994985 0.10984501 -0.015251232 -0.014348768 0.3360232 0.07235785 0.15817174 0.06593908 0.051389992 -0.1304809 0.07082112 0.13033417 0.0327243 -0.15515107 0.087881014 0.28939 0.47333312 -0.43718806 -0.06631611 0.6014402 -0.045249566 0.6617161 0.6610056 0.238151 0.23652317 0.6396634 0.62372816 0.57201016 0.50529623 0.18370315 0.335464 0.19610766 0.26705712 0.34758925 0.2127501 0.27399778 0.047949277 0.0030331835 0.16309166 0.20698352 0.10714826 0.13043128 0.39731112 0.5683289 0.4558547 0.035651155 0.20527443 -0.060501236 0.098698184 0.23096016 0.09437292 0.12964915 0.527277 0.6047597 0.7541801 0.70919895 0.24632086 0.26230717 0.24296421 0.89589834 0.89519095 0.843857 0.8468996 0.8863395 0.917198 0.82159567 0.7397983 0.8114105 0.8556965 0.6956351 0.7976284 0.7148864 0.598586 0.6268792 0.5719055 0.37065932 0.579439 0.5807947 0.55782294 0.4771781 0.40077934 0.34548157 0.07835534 0.14070019 0.20411587 0.25566128 0.3891679 0.45650142 0.542238 0.36650857 0.2147606 0.09515703 0.11769278 0.16958337 0.2001983 0.20715056 0.17254828 0.36544856 0.44381607 0.5649576 0.562215 0.5356746 0.077012494 0.075146854 -0.2145917 -0.2184694 -0.047973733 -0.07337318 -0.12048097 -0.06709639 0.08636704 0.5575123 -0.1620976 0.06260313 -0.25771636 -0.23548111 -0.1563575 0.47360498 -0.18764716 -0.29525456 0.2325823 0.25693467 0.41743937 0.4761926 0.4441533 0.38637048 -0.07134491 0.0069882646 0.12159766 0.42909306 0.5664803 0.6744937 0.36719164 0.6489193 0.6915913 0.08254928 0.013512984 -0.17116028 0.40230078 0.58304024 0.66342765 -0.02438372 0.026901186 -0.14759165 -0.014083836 0.09481266 0.27213067 0.0024613999 0.014951155 -0.13980758 0.062377393 0.029992223 -0.20951748 -0.16324563 0.13144761 0.064681225 -0.13252237 0.37181282 -0.030583516 0.4544957 0.57355547 0.59254843 0.5088263 -0.039492093 0.52960205 0.58184123 0.6046855 0.595809 0.3030336 0.4757871 0.5393283 0.57136285 0.59636176 0.58665 0.5765549 0.16017488 0.05885624 0.0986255 0.038043648 0.5775479 0.55884445 0.5330561 0.035795033 0.011173755 0.019867808 0.32442516 0.30653962 0.052465826 0.10327968 0.07735809 0.29823261 0.1683872 -0.22141263 -0.11348496 0.288254 0.33546555 0.27140117 0.07636158 0.14493635 0.08793407 0.29285148 0.34136713 0.47339097 0.0051390957 0.118461885 -0.035402007 0.32315904 0.33586836 0.6202746 0.2839966 0.32070762 0.32014567 0.32491967 0.3073333 0.3414852 0.48969534 0.48277938 0.47994748 0.34068698 0.35787657 0.37756473 0.59900457 0.5921909 0.5683819 0.54789704 0.8644922 0.8493075 0.7248368 0.83566236 0.8666222 0.74472535 0.6132193 0.7112682 0.5670533 0.49589166 0.5815077 0.42165315 0.44869792 0.2616563 0.3430076 0.39905006 0.24629574 0.14703144 0.234174 0.12918383 0.21377227 0.2274011 0.06716001 0.3081721 0.29884064 0.27531677 0.20181061 0.3154037 0.41320574 0.48115182 0.51638293 0.368412 0.12436141 -0.16385126 -0.10948141 -0.34832725 -0.07623663 0.12097409 0.14462522 0.17078313 0.008248998 0.52533805 0.4853047 0.39834934 -0.081680514 -0.14324497 -0.22444844 -0.23746629 -0.17802642 -0.12933487 0.08894953 0.5343809 0.5047845 0.46056294 -0.24633598 0.46288586 0.3967682 0.4172578 -0.2970666 -0.016280599 0.040397972 0.18936355 0.3217921 0.4277773 0.41653505 0.35474685 0.3734917 -0.3088952 -0.11498076 0.60252476 0.69274396 0.73371196 0.2722878 0.08679281 -0.09338745 0.71407676 0.73969257 -0.031282037 -0.45611373 -0.30683202 0.6923126 0.7267641 -0.03266324 -0.24483347 -0.029447958 0.48482132 0.6539858 -0.037003286 -0.054253474 -0.24161927 0.0027379915 0.1523705 -0.07690032 -0.06693803 -0.2535094 0.02599204 0.013824172 -0.30111754 -0.40658757 0.5739851 0.37018645 0.3865714 -0.13346323 -0.21825239 0.6126638 0.61286175 0.51657635 0.6151467 0.6162546 0.55116296 0.2002612 0.58860946 0.6094012 0.5547365 0.5206839 0.4307335 0.5403337 0.59121084 0.42890283 0.075731665 0.098649025 0.07359141 0.019591868 0.19828756 -0.0103374645 0.20061103 0.1717918 0.19690111 0.24354702 0.36005676 -0.023990013 0.027442439 0.16617714 0.38894463 0.37854865 0.27975264 0.20013273 0.048971422 0.18735921 -0.058741353 0.19561058 0.2851116 0.3712596 0.2512256 0.19756842 0.4223099 0.3188693 0.3456825 0.29796672 0.2893168 0.4510002 0.51842684 0.5690218 0.5716702 0.49873465 0.34536952 0.3724022 0.41320497 0.45212704 0.43192208 0.59484637 0.56934285 0.58463275 0.5834901 0.5368923 0.6013002 0.60286754 0.606887 0.602188 0.5569252 0.66834325 0.6555047 0.6159521 0.5151016 0.5472187 0.502794 0.69843435 0.6871811 0.57244587 0.5003371 0.48115033 0.458566 0.42929262 0.5620284 0.41202673 0.40932858 0.42933744 0.4159661 0.3987664 0.38668704 0.4141436 0.8128426 0.72201943 0.7727015 0.82361984 0.5824988 0.5755279 0.45096672 0.27730632 0.27717602 0.33365643 0.30492052 0.32404482 0.30833867 0.28876165 0.27596387 -0.016441017 0.11826922 0.21357565 0.71997803 0.7567201 -0.025519244 0.01037845 0.31779358 0.28292328 0.14679089 0.21736503 0.24354562 0.6182919 0.701833 0.7512475 -0.051568847 -0.20536888 0.008238621 0.051396415 0.099899665 0.3013966 0.31562704 0.21296492 0.10730013 0.23273465 0.347351 0.38651738 0.63334227 0.70120907 -0.16085468 -0.27382663 -0.051801585 -0.14086153 -0.05875455 -0.097023174 0.07943536 0.11103955 0.14756376 0.47403187 0.49273133 0.3246264 -0.17073047 -0.15014383 -0.14301427 0.019364715 0.32050723 0.31733993 0.30805272 -0.02643434 0.15995611 0.35589916 0.34517348 0.33667022 0.37977576 0.5356252 0.26769322 0.39500418 0.5831808 0.69763947 0.74146265 0.7715794 0.009441847 -0.29783255 0.77258384 0.06675883 -0.14745022 -0.05424062 -0.068266526 -0.16947824 0.62053335 0.7194521 -0.1466694 -0.07572895 -0.04583434 -0.23984677 0.5392914 0.04295925 -0.08365251 -0.29188982 -0.7623849 -0.36076003 0.34349707 -0.2724497 0.5978682 0.50334924 0.6085561 0.50337183 0.6033224 0.60857224 0.5323752 0.48797607 0.42062983 0.0052438527 0.33039796 0.49409437 0.5830463 0.5922057 0.35019612 0.10578129 0.13365513 0.22656828 0.46135217 0.089132056 0.068139836 0.24077621 0.051069297 0.266737 0.275388 0.2570867 0.26719067 0.2783674 0.37521404 -0.14623702 -0.08197287 0.26145998 0.33397377 0.405114 0.4016174 0.3097725 0.487289 0.26293314 0.48478687 0.32249054 0.34588712 0.46097466 0.52759296 0.6152747 0.60627544 0.54780483 0.3530023 0.36807355 0.441979 0.48193803 0.46993324 0.5607898 0.6048218 0.46038324 0.46751234 0.4950492 0.53947866 0.5156012 0.4369524 0.5845338 0.52583206 0.4401338 0.41240823 0.65470517 0.38480565 0.69235367 0.35210598 0.30737433 0.71054375 0.68391764 0.54325724 0.36803204 0.33706778 0.48994204 0.38269374 0.379646 0.39543754 0.40324032 0.39660826 0.39520028 0.39794528 0.40147057 0.3947328 0.394147 0.39937288 0.3859609 0.42435184 0.39455035 0.3035505 0.26430357 0.24577817 0.3156932 0.5852162 0.2537054 0.21751556 0.3108646 0.324413 0.30614376 0.60158485 0.5266562 0.475511 0.28461757 0.073981136 0.28794396 0.24449228 0.23604733 0.49296126 0.37845653 0.11755727 0.16031916 0.21685708 0.29266366 0.70497084 0.7595179 0.81560695 0.82234204 0.32827634 0.26639974 0.20281443 0.15913495 0.15016463 0.22981384 0.28887615 0.636933 0.72978306 0.80851316 0.81275153 0.21906543 0.0918129 0.07473858 0.052484147 0.21166883 0.2338701 0.2834818 0.17132749 0.1064385 0.08101043 0.11551994 0.15940748 0.022535965 0.06210789 0.5269739 0.77503777 0.7837777 -0.042523187 -0.25956437 -0.34468725 0.23852187 0.28138888 0.22311056 0.081529826 0.5089641 0.613577 0.7362857 0.7469424 -0.3279441 -0.05946943 -0.078737944 -0.101597704 0.015306838 0.054444358 0.1145046 0.32349235 0.0891532 0.40107548 0.39707783 0.52372754 0.24534181 -0.13248706 -0.05800531 0.019971594 0.25495332 0.2386376 0.21433352 -0.21098112 0.36271217 0.14953014 0.5228131 0.6953709 0.7579055 0.07409431 0.7906121 0.27819487 0.79863036 0.39402622 0.35007998 -0.33507702 -0.2202715 -0.10089058 0.7271106 0.46502656 -0.11445255 -0.041407242 0.4286721 0.3704034 -0.175948 -0.12613052 -0.46289313 0.24340157 0.26096165 0.53409624 0.42552483 0.56239283 0.5620402 0.41882432 0.34525865 0.2648166 0.554357 0.5561017 0.064826265 0.06426017 0.35714832 0.43792096 0.52154654 0.5466609 0.09407782 0.24901453 0.14299923 0.27549344 0.250696