# vtk DataFile Version 2.0
Really cool data
ASCII
DATASET POLYDATA
POINTS 4975 float
-22.719799 -10.966027 39.045116
-22.743597 -11.110756 39.638733
-22.755135 -11.030241 40.137913
-22.845304 -10.231596 38.71038
-23.034546 -10.385576 39.5807
-22.92816 -10.497755 40.244205
-22.857155 -9.916401 40.912968
-22.5875 -9.779026 38.452908
-23.288082 -9.121418 40.474033
-23.079378 -9.273548 41.14089
-22.640137 -8.942066 38.021606
-23.013926 -8.521507 38.757217
-23.320198 -8.52127 39.474037
-23.393671 -8.392168 40.497726
-23.146528 -8.445188 41.21216
-22.843643 -8.528935 41.61135
-23.157667 -7.672051 39.68849
-23.211157 -7.678295 40.455956
-22.970339 -7.798524 41.164524
-22.537252 -6.9983172 38.386086
-22.742867 -6.86175 39.719498
-22.788967 -7.0275984 40.54292
-22.801605 -7.2022543 41.00605
-21.905708 -11.696242 39.03523
-22.146254 -11.652188 39.59518
-22.232195 -11.58134 39.981598
-21.909662 -11.092563 38.107113
-22.21357 -11.367185 38.759373
-22.46772 -11.448383 39.577682
-22.388235 -11.274108 40.399494
-22.496822 -10.177308 41.025394
-22.202835 -9.754609 37.71368
-22.554651 -9.59968 41.519356
-22.606644 -9.121272 41.650066
-22.275011 -8.110688 37.75534
-22.412565 -8.585421 41.789906
-21.944452 -7.406238 36.897808
-22.446444 -7.131387 37.7068
-22.6336 -7.84614 41.50675
-22.09021 -7.725489 41.631
-21.992678 -6.640581 36.96649
-22.268288 -6.6061487 37.616512
-22.48639 -6.9896164 39.069263
-22.412552 -6.4764266 39.719616
-22.547886 -6.812905 40.570095
-22.449585 -7.026534 40.991516
-21.739176 -5.9491487 37.025455
-21.93189 -5.952191 37.650986
-22.145924 -6.1731224 38.55646
-22.01747 -6.097049 39.434616
-20.738274 -15.123118 31.113266
-20.901157 -15.097514 31.553051
-20.853361 -15.103228 32.262257
-20.762854 -14.867566 32.88637
-20.79905 -14.597514 30.918032
-21.118202 -14.4782 31.67505
-21.068985 -14.464791 32.46593
-20.903797 -14.331536 33.14845
-20.811663 -13.738179 30.994871
-21.103815 -13.862848 31.60179
-21.135714 -13.508175 32.455296
-20.659039 -13.602461 33.438637
-20.674744 -12.680479 31.515554
-21.058193 -13.126236 32.34829
-21.546055 -11.779975 38.820747
-21.480913 -11.81857 39.688534
-21.227491 -11.774074 40.02564
-21.292685 -11.169307 37.87469
-21.81429 -11.481647 40.614464
-21.42751 -11.349664 40.84014
-20.676783 -10.339268 32.70388
-20.762894 -10.356417 33.520527
-20.834251 -10.572484 34.21718
-20.782412 -9.13203 32.195324
-21.169418 -9.168363 32.77425
-21.245218 -9.275949 33.341026
-21.038748 -9.475702 34.832905
-21.586082 -9.662303 37.301563
-21.62513 -9.41191 41.751125
-20.826519 -8.519459 32.15873
-21.242939 -8.428857 32.701103
-21.45309 -8.426193 33.38152
-21.113396 -8.771803 34.234093
-20.659327 -8.398267 35.40431
-21.470078 -8.311342 36.574223
-21.530037 -8.397098 41.78307
-20.894093 -8.008056 32.23836
-21.071012 -7.6594467 32.825985
-21.21587 -7.6374307 33.46461
-21.168901 -7.668608 33.871834
-21.386518 -7.900782 41.655445
-20.90012 -7.295566 33.28861
-21.191465 -6.263662 36.463024
-21.668423 -7.088687 41.30026
-21.197676 -5.9733233 36.603516
-21.621483 -5.6643853 37.4786
-21.44362 -5.5490413 38.466656
-21.456848 -5.7478714 39.477463
-21.366726 -6.237034 40.31163
-21.029554 -5.1458015 37.879593
-20.282621 -15.714198 31.679838
-20.182474 -15.753845 32.269993
-19.89661 -15.6111965 32.986607
-20.234053 -14.916652 30.379856
-20.431898 -15.229744 30.94076
-20.572248 -15.526348 31.58136
-20.426538 -15.560456 32.335556
-20.35644 -15.31588 32.931744
-20.466908 -14.824615 30.653841
-20.402386 -14.420365 33.509735
-19.952763 -14.563916 33.828598
-19.813782 -12.960474 30.176497
-19.963102 -12.302553 41.935806
-19.838892 -12.408982 42.46802
-19.836744 -12.129598 43.03851
-19.887306 -11.437585 31.447176
-20.391266 -11.920551 32.255314
-20.29871 -11.408413 33.79802
-20.316704 -11.094532 35.11009
-20.135025 -10.727418 36.43114
-20.480177 -11.161515 41.84641
-19.818487 -11.412616 43.34825
-19.760117 -10.674767 31.322794
-19.692642 -10.3304825 31.450712
-20.44722 -10.223194 36.793377
-19.812696 -10.952821 43.347557
-20.245443 -9.160762 31.813023
-20.564728 -9.590099 41.749023
-20.388962 -8.489706 31.858904
-19.984764 -9.073525 42.345818
-20.365671 -7.84781 31.992123
-20.534037 -7.835432 41.55269
-20.385426 -7.149722 32.737637
-20.361814 -7.073622 33.435715
-20.207458 -6.3120737 40.578278
-20.511118 -5.9922457 36.241768
-20.417568 -5.570183 36.531612
-20.310925 -5.772639 40.175568
-19.929892 -4.7513876 37.04691
-20.268738 -4.7652535 37.54235
-20.10075 -4.560403 38.353256
-20.254673 -4.937784 39.479313
-19.721966 -4.308044 38.632187
-18.986984 -15.872749 31.092587
-19.48637 -15.892373 32.54231
-19.32214 -15.719478 33.081688
-19.552668 -15.593806 30.626934
-19.295416 -15.383194 33.489845
-19.557446 -14.931532 33.783463
-18.503944 -14.600246 24.6695
-19.59511 -14.755361 29.964283
-19.735563 -13.970174 34.07082
-18.875248 -13.848093 29.342628
-19.364124 -13.449013 29.626099
-19.20293 -12.790754 41.638912
-19.24895 -12.857817 42.44162
-19.175644 -12.744868 42.957382
-18.990486 -12.524023 40.895607
-19.38616 -12.352925 43.205845
-19.22121 -12.028616 43.663235
-18.76962 -11.863145 29.739588
-19.129105 -11.573538 30.450636
-19.473867 -11.61833 35.796566
-18.774084 -11.2033615 37.601517
-19.434635 -11.545789 43.518093
-19.112816 -11.437465 43.9254
-19.057737 -10.512737 31.130749
-18.722633 -9.11423 30.859846
-19.60965 -10.005614 43.163044
-19.374552 -8.345661 31.260788
-19.67655 -8.77094 42.61932
-18.775429 -8.380884 43.00906
-18.949343 -7.8033104 31.111378
-19.238451 -7.5904655 31.60232
-19.619205 -8.102846 42.059776
-19.63996 -6.9316454 34.0243
-19.36213 -6.647589 35.436226
-18.801157 -7.1315885 41.304123
-19.379725 -5.518307 40.431244
-19.00721 -5.9209976 40.558918
-19.475538 -4.9152427 36.626865
-19.515816 -4.470282 39.603195
-19.511244 -5.0340743 40.101643
-19.292116 -4.0980697 37.64295
-19.429953 -4.066768 38.33357
-19.021564 -3.9332418 39.269554
-17.870672 -18.83691 21.604324
-18.080103 -19.073925 22.72314
-18.092075 -19.043144 23.382904
-17.923223 -18.85778 24.104235
-17.743187 -18.37931 20.801083
-18.034187 -18.360298 21.551779
-18.33377 -18.548128 22.640236
-18.36938 -18.452465 23.467567
-18.021925 -18.441597 24.250322
-17.679413 -17.78188 26.267471
-17.742844 -17.849125 20.686083
-18.179539 -17.730844 21.803698
-18.320038 -17.581966 22.897955
-18.422861 -17.966026 23.124624
-18.168941 -17.565271 24.606352
-17.726389 -17.610744 26.35865
-17.747147 -16.973167 27.255255
-17.636837 -17.196276 21.069983
-18.005934 -16.698332 23.717653
-18.256224 -16.462637 24.815886
-18.26745 -16.352589 25.330854
-18.084354 -16.539972 26.7462
-17.65182 -16.555063 29.318771
-18.668575 -15.933254 30.896896
-18.264162 -16.120295 31.431217
-18.425446 -16.00425 32.23176
-18.799427 -15.776634 32.911163
-18.260225 -15.593728 25.970442
-18.37533 -15.564378 29.43803
-18.285929 -15.168933 33.396854
-18.55865 -15.002938 33.77329
-18.143969 -14.465982 23.567583
-18.43466 -14.404422 24.4938
-18.265896 -14.762076 25.665668
-18.126753 -13.693718 23.670433
-18.313986 -13.733326 24.424173
-18.317835 -13.9928055 25.251078
-17.642761 -13.387848 26.727531
-18.061272 -13.21535 28.725618
-18.581745 -13.590996 35.13565
-18.389242 -13.117415 36.406086
-18.36904 -13.133742 41.892513
-18.373167 -13.165493 42.474617
-18.279306 -12.936307 43.132866
-17.73098 -12.87603 23.639158
-18.162542 -12.322972 40.31539
-18.50046 -12.535239 43.503864
-18.382626 -12.00151 43.905052
-17.590635 -11.931455 25.440653
-17.66506 -11.793733 26.7335
-17.573612 -11.637225 28.495995
-18.467438 -11.294468 44.06829
-18.544834 -10.483531 44.09793
-18.217701 -9.258601 30.441608
-17.745958 -8.939486 44.415356
-18.27228 -8.193395 30.371033
-18.359156 -8.854712 43.811264
-17.562172 -8.038172 46.195877
-17.819227 -7.6437836 30.190617
-18.620878 -8.1292095 30.870464
-17.934399 -7.5693793 43.464535
-17.859985 -7.5174847 45.368256
-18.572094 -6.906916 31.876812
-18.62236 -6.836236 32.393806
-18.343752 -6.708108 33.832535
-18.922209 -7.088054 34.184013
-17.730383 -6.802338 43.423714
-17.732645 -6.579089 44.361603
-17.857079 -6.2456517 45.43915
-17.864761 -5.942488 31.935226
-17.882647 -6.250634 32.600903
-17.75244 -5.201485 41.970177
-17.737461 -6.0077453 44.984035
-17.723103 -5.921095 45.53721
-17.62244 -5.9673285 46.306297
-18.450626 -3.970582 37.193222
-18.71534 -3.8215134 37.775967
-18.656708 -3.76289 38.194427
-18.370094 -3.698313 39.487064
-17.181784 -19.588814 22.890419
-17.193726 -19.631592 23.294168
-17.18734 -18.954403 20.72499
-17.205809 -19.400742 21.859018
-17.501429 -19.464655 22.619164
-17.565685 -19.386156 23.438478
-16.786793 -19.19616 25.1608
-16.82207 -18.811628 26.130465
-17.210346 -18.385136 20.282438
-17.429153 -18.415346 20.46118
-17.27273 -18.489208 25.755178
-16.854277 -18.24082 27.818577
-17.147738 -17.697731 20.210556
-17.469934 -17.514267 20.524416
-17.010075 -17.676458 28.674889
-17.030197 -17.21536 20.237898
-17.077229 -16.69297 20.849398
-17.570957 -16.72366 21.523813
-17.484596 -16.437319 30.854017
-17.917046 -15.624343 32.33901
-16.729166 -15.173382 22.502184
-17.653164 -15.396863 32.90507
-18.03263 -14.816697 33.751698
-17.670336 -14.558194 22.951258
-17.319304 -14.588565 33.39747
-17.86153 -14.277224 34.10232
-17.270538 -13.747686 35.374443
-17.138924 -13.658872 22.698298
-17.376642 -13.450675 36.460426
-17.535175 -13.096504 37.408497
-16.956804 -12.77649 39.427628
-17.19679 -12.741973 40.81521
-17.581606 -13.004217 41.75738
-17.730644 -13.123558 42.577297
-17.749577 -12.869463 43.165634
-16.709778 -12.968837 22.371199
-17.107903 -12.807823 22.80481
-17.426748 -12.661158 23.377403
-17.598316 -12.4614 43.450394
-17.687897 -12.026386 43.746048
-16.755272 -12.053865 22.915386
-17.431902 -11.844756 24.662806
-17.409048 -11.369075 26.43775
-17.599394 -11.675873 43.93217
-16.860018 -10.964511 24.658855
-16.914476 -10.262368 25.626013
-17.424545 -10.776112 26.547686
-17.489334 -10.74706 27.390842
-17.475573 -10.43047 44.18002
-16.790148 -9.928686 25.723406
-17.039612 -9.977283 27.505455
-17.306189 -9.129568 45.255264
-16.988382 -8.835141 46.35002
[...]
POINT_DATA 4975
SCALARS features_00 float 1
LOOKUP_TABLE default
0.5592453 0.56301296 0.5624282 0.5694215 0.61452496 0.6081364 0.63132596 0.52537847 0.6949692 0.6662819 0.4316275 0.5153574 0.64578044 0.69129837 0.67987967 0.6559012 0.58050835 0.6398822 0.664232 0.47097415 0.5211067 0.59197855 0.6256778 0.5293716 0.53020644 0.5230222 0.51290995 0.5395574 0.542423 0.5187239 0.57622075 0.4365208 0.6133764 0.62977815 0.3994614 0.6033769 0.38309735 0.4530527 0.6400051 0.5694388 0.43974352 0.46074015 0.48398393 0.49568617 0.56455874 0.5865736 0.4381895 0.44410098 0.44759035 0.45395386 0.6720774 0.6976416 0.7196542 0.71293825 0.64425135 0.70029366 0.72454816 0.71275884 0.6028482 0.6772871 0.6864487 0.65835965 0.4471219 0.62452143 0.51085675 0.49054992 0.4539521 0.41988242 0.47126183 0.43295556 0.33363435 0.36132288 0.31693456 0.4248103 0.51421404 0.51052916 0.35147732 0.3443789 0.47185212 0.48780626 0.5980253 0.62234485 0.4999913 0.25468007 0.20654139 0.44876197 0.5506495 0.63887095 0.6634834 0.6355386 0.4233733 0.6250379 0.39243746 0.48332572 0.40283352 0.42557165 0.4163741 0.42305562 0.42188847 0.39355892 0.6787857 0.6923398 0.6606914 0.59998655 0.6523397 0.68740344 0.708703 0.69702864 0.6229767 0.6773319 0.6196977 0.32465768 0.52591026 0.5888654 0.6019369 0.13192633 0.25458536 0.21127479 0.10537475 -0.0915128 0.43554264 0.56424963 0.09122098 0.10267697 0.052174702 0.50272286 0.2853378 0.23435988 0.37939152 0.08531422 0.4645301 0.18679771 0.5416861 0.4811995 0.18024436 0.31260937 0.3385768 0.26640907 0.3396747 0.36527568 0.38046134 0.37736985 0.36925244 0.58389074 0.624847 0.5706368 0.60404265 0.54689807 0.57406646 0.3164857 0.5241115 0.5296481 0.28885043 0.30556104 0.5931484 0.65008914 0.6550961 0.48023498 0.637751 0.62415195 0.052102566 0.08551366 -0.012263611 0.01766251 0.59353364 0.5833006 0.043761563 0.0942343 0.23611729 0.21262193 0.030852899 -0.03313327 0.19969176 0.29283357 0.007136263 0.15310627 0.004416302 -0.0640353 0.15026802 0.03136379 0.2838805 0.3481517 0.271889 0.32354662 0.34487867 0.3159464 0.7942381 0.687477 0.62991273 0.55725086 0.7927443 0.7719357 0.69198585 0.61238015 0.5251618 0.34041578 0.7530638 0.71431935 0.57654047 0.59335876 0.38398182 0.32571214 0.28609267 0.66637486 0.34732896 0.24907853 0.23203209 0.25373685 0.20129086 0.51629335 0.48469526 0.47565347 0.4769711 0.22849417 0.35822895 0.32767692 0.36226445 0.39663428 0.3418501 0.26106852 0.40226126 0.36997962 0.2931708 0.11923689 0.012092888 0.1322228 0.11667086 0.6024751 0.6433511 0.64083344 0.38173768 0.35964733 0.6361227 0.5987045 0.25203803 0.12782332 -0.026290476 0.5588619 0.46612594 0.03830051 0.13794923 0.044027176 0.060503542 0.4024898 -0.01262065 0.129553 0.047210872 0.34416693 0.21306035 0.21125798 0.031261746 0.034445155 0.030268447 0.16948222 0.29690087 0.19783595 0.11570391 -0.03392093 0.23189545 0.28541607 0.33744502 0.23737139 0.28335983 0.28546762 0.25350764 0.599 0.5594001 0.8393905 0.7475821 0.6572823 0.5813886 0.4408517 0.40100622 0.8222244 0.8139135 0.4023502 0.29770774 0.77430063 0.73182034 0.29829514 0.7241821 0.607335 0.5592006 0.27740467 0.33129722 0.20159715 0.23322287 0.23362777 0.33565333 0.103777476 0.12728056 0.034408122 0.35686398 0.15097621 0.15860417 0.10305592 0.31376287 0.50187904 0.59000176 0.5951886 0.3899756 0.38578993 0.38216078 0.5574097 0.54217935 0.40379548 0.32975757 0.1889461 0.5154185 0.34292555 0.28389567 0.20305374 0.1394075 0.41723475 0.28822425 0.16367443 0.243016 0.40825218 0.22195476 0.1765256 0.016470715 -0.042531382 0.30168626 0.42205665 0.47094327 0.079748735 0.4307503 0.46292314 0.47779745 0.20945829 0.11924516 0.40062886 0.39000857 0.34203714 0.2962553 0.10921281 0.112159245 0.13897836 0.33580554 0.2758686 0.43635732 0.4044667 0.31847903 -0.0026089884 -0.06723116 0.08072864 0.14472231 0.19449463 0.22466885 0.23056185 0.4525478 0.4419445 0.3973405 0.2629173 0.097033605 0.11695217 0.16951026 0.15381114 0.14529736 0.16943745 0.19449657 0.22957912 0.21854806 0.18886006 0.18160951 0.20267199 0.5368737 0.51047224 0.79709315 0.7300658 0.46289968 0.43612495 0.39366084 0.270814 0.8249544 0.2573126 0.80639005 0.18441592 0.7252523 0.67315376 0.13203093 0.371811 0.07227152 0.009790316 -0.06947003 -0.01715143 0.3646202 0.21214311 0.15766363 0.1370525 0.44195384 0.47326964 0.40712395 0.4058977 0.40561852 0.41140562 0.40652686 0.39356044 0.38657716 0.37909707 0.3591643 0.28889784 0.41571587 0.4126042 0.4029305 0.29851875 0.24339288 0.1391442 0.08328794 0.44785476 0.06692382 0.43995637 0.40212107 0.42703405 0.18333983 0.15698476 0.45382416 0.47822142 0.47513664 0.38720936 0.34383702 0.1495429 -0.104819275 0.014223389 0.20245975 0.17127362 0.14616418 0.16057003 0.49139243 0.4482476 0.3574457 0.01573858 0.11387917 0.21377966 0.19735035 0.18959829 0.22287717 0.2998585 0.31564474 0.2770495 0.2017748 0.20688614 0.31626368 0.7642942 0.7307347 0.6506411 0.5472429 0.42413506 0.41319427 0.4147824 0.3966989 0.23243935 0.22380862 0.7758616 0.73646563 0.80688363 0.19389017 0.14730904 0.7873775 0.06490666 0.7522179 0.7199779 0.028052138 -0.09183125 0.07379292 0.21193284 0.25475937 0.39521548 0.22520626 0.1918019 0.2127074 0.4229597 0.2509355 0.42610615 0.40528053 0.28808075 0.38203594 0.35522845 0.34618503 0.35472828 0.34349528 0.34021193 0.33013558 0.42004666 0.112933636 0.3176176 0.016051069 0.2743259 0.13556367 0.14949763 0.20147824 0.37041774 0.15181395 0.19397889 0.23539142 0.4567073 0.47080356 -0.14779942 0.1876156 0.47553915 0.49598736 0.46342802 0.22628698 -0.11129356 0.0997617 0.08734912 0.24085283 0.20288227 0.28057137 0.28654608 0.15899912 0.28124335 0.31033617 0.36645067 0.33194306 0.24503079 0.31009886 0.30865884 0.28310525 0.4283501 0.51473343 0.49821603 0.47559667 0.58288974 0.5905906 0.56257594 0.49312925 0.63300127 0.5964612 0.65221083 0.6206895 0.4639551 0.39318144 0.35259327 0.23953116 0.31600118 0.7513639 0.6840615 0.27691782 0.31416067 0.7830709 0.795442 0.6905589 0.064169124 0.042365927 0.26335466 0.2698204 0.25421083 0.2373093 0.15328883 0.55895007 0.16239312 0.20604157 0.18814 0.2183584 0.3989841 0.5016925 0.35344282 0.314287 0.24463789 0.33204246 0.33622074 0.32272074 0.25274625 0.20637722 0.31411758 0.017409693 0.24386498 0.23917332 0.2335842 0.3505472 0.21926181 0.18086693 0.41583157 0.20500395 0.15519427 0.39869338 0.3922239 0.07560212 -0.057222936 0.024815094 0.14710945 0.1443939 0.051692933 -0.166071 0.20481572 0.068734325 0.24305792 0.23028392 0.2407259 0.27185348 0.18208325 0.3910051 0.46512094 0.5375237 0.553154 0.49580622 0.52339995 0.61312324 0.6564623 0.60034716 0.5463301 0.41171643 0.2972553 0.25940415 0.38949978 0.3685326 0.3806653 0.7026788 0.6036078 0.45971715 0.3449334 0.28138065 0.21588744 0.33937424 0.35688883 0.3427239 0.74344826 0.69509035 0.6113431 0.26797402 0.69429743 0.5359703 0.09720052 0.3590746 0.42974252 -0.1385704 -0.03883358 0.2746738 0.27497566 0.50858366 0.17075807 0.26436293 0.27071413 0.21605912 0.11717522 0.5672613 0.21504733 0.14202385 0.601503 0.00661961 0.55388606 0.5819625 0.56543815 0.5176597 0.27798492 0.36693233 0.33646706 0.30956382 0.3007565 0.25972706 0.28808844 0.27838066 0.090743795 0.17522469 0.24699524 0.05400669 -0.010893238 0.23604798 0.25423577 0.20530018 0.20630665 0.15517232 0.20417626 0.260437 0.09395541 0.24989165 0.33049375 0.3996406 0.17027065 -0.014693897 0.05961447 0.34031397 0.39866918 0.46771914 0.08300363 0.009126011 -0.060872797 0.010402907 -0.1800499 0.43311095 0.4543832 0.5206419 0.00973353 -0.0660963 -0.0825622 0.047505423 0.03420739 0.006751906 0.35313186 0.43012673 0.45315483 0.5471729 -0.074305184 0.0709752 0.037994616 0.30025217 0.21502148 0.4493881 0.3051467 0.45241547 0.5662855 0.56664544 0.46769792 0.6338992 0.500696 0.50221056 0.43453783 0.40195918 0.13598667 0.35649958 0.40550643 0.5501456 0.4930187 0.43429643 0.38409364 0.3241254 0.5000262 0.4124731 0.11533921 0.35407943 -0.09099534 -0.07981956 0.4869507 0.47559178 0.23811814 0.51368946 0.42159957 0.20273244 0.16012059 0.23196752 0.27422592 0.2500731 0.17235526 0.54823446 0.59974706 0.6057313 0.549867 0.20064598 0.063016 -0.11923226 0.3399917 0.46353495 0.5847311 0.5407251 0.12551275 -0.04166533 0.0041622818 0.41872856 0.27500868 0.26871392 0.11803222 0.24559888 0.25424165 0.24782884 0.23814431 0.20113555 0.16869372 0.185193 0.13838577 0.15584767 0.16056833 -0.07905559 0.35231376 0.41108352 0.4651075 0.13281283 0.47080407 0.52659297 0.20926732 0.5444231 0.21202362 0.12856352 0.07214951 -0.027993206 -0.05087643 -0.13343558 0.54741573 0.54970115 0.022846565 0.027852926 -0.14707889 0.013714766 -0.012577344 0.30284902 0.3782348 0.4333587 0.11550149 0.025687512 0.035520658 -0.03445548 -0.18774897 0.07361456 -0.032113113 0.5391869 0.068721704 0.5012735 0.0763139 0.13716356 0.21931821 0.2864074 0.24899676 0.36087543 0.505643 0.5294882 0.52238 0.4127754 0.4569537 0.48833472 0.38132194 0.33103436 0.32195526 0.2614591 0.3288737 0.18206063 0.4501748 -0.18050262 -0.1228026 0.52031106 0.56581664 0.58819777 -0.09514578 0.047452733 0.0014511645 0.22889075 0.464886 0.51108086 0.58039623 0.538151 -0.041994497 -0.3770234 -0.051581264 0.31052896 -0.16324839 0.15964104 0.2485339 0.29053196 0.22122145 0.34707186 0.3196325 0.26482904 0.11079112 0.10845512 0.16671935 0.21128842 0.10555147 0.45103824 0.1725311 0.4986747 0.1944268 0.21019098 0.49783438 0.4624799 0.20309979 0.3560505 0.13461854 0.092718944 -0.007233396 0.25619406 0.14720814 0.14472413 0.013720585 -0.1445733 0.20772213 0.4375652 0.17067704 0.16783553 0.1493776 0.13439806 0.060082022 0.031223005 -0.08046147 0.06516117 -0.0045521855 0.52342236 0.5725658 0.5324894 0.17342041 0.17843337 0.12689012 0.12793517 0.15306692 0.14312707 0.13133974 0.08915032 0.038274504 0.5531462 0.5917423 0.5890833 0.17886995 0.19576654 0.16242951 0.06809172 0.540096 0.5811818 0.36419827 0.37338415 0.26232517 0.24322873 0.22469923 0.4888843 0.45763093 0.39687872 0.33388323 0.29128173 0.52750254 0.55667394 0.53089523 0.46240595 0.6551471 0.6985946 0.7210356 0.7623023 0.7545239 0.4858346 0.5230321 0.41508245 0.45228988 0.4939412 0.35759425 0.33499095 0.33941483 0.4000951 0.36156684 0.38122976 0.2951367 0.3606367 0.32497185 0.20383118 0.2749995 -0.2184039 -0.17789316 -0.1701431 -0.042871874 0.49538198 -0.17678548 0.27402 0.2620265 0.16485709 0.46276113 0.41443515 0.4980119 0.49195033 -0.18059482 -0.2301449 0.18353087 0.37045002 -0.04119461 0.20035398 0.24810418 0.2708191 0.29771724 0.29163337 0.26157248 0.22938937 0.18384814 0.0961765 0.33461028 0.042687874 0.050550137 0.07658498 0.2920733 0.24790072 0.2033571 0.096268006 0.1164677 0.13874115 0.16419303 0.042365286 0.24294266 0.15392503 0.16005534 0.41272688 0.41781983 0.13090798 0.15079316 0.38847944 0.13468355 0.1310705 0.2435683 0.1671343 -0.043124072 -0.2123301 0.39643577 0.37058392 0.23444594 0.1959227 -0.037453227 -0.12254883 -0.16752476 0.068404086 0.047984056 0.058427338 0.51226676 0.48109078 0.19788101 0.1958414 0.10974088 0.16269854 -0.005894899 -0.05567685 0.063485086 0.09002005 0.1501834 0.38230175 0.5722966 0.5549822 0.08199318 -0.03697824 0.44173235 0.4202542 0.4910614 0.56404847 0.5733218 0.5636511 0.34722015 0.46905082 0.45800614 0.49743098 0.4006245 0.44462597 0.42734402 0.45660704 0.43593213 0.5335578 0.6821007 0.71653396 0.725672 0.7641585 0.7971716 0.79647005 0.7960178 0.33267945 0.2601915 0.42931896 0.43438956 0.33515054 0.25354552 0.15353183 0.43263084 0.41226307 0.23904929 0.36825556 0.32314807 0.28260335 0.20495665 -0.10644051 0.012978731 0.37276438 0.38171998 0.3324847 -0.01072355 0.09445306 0.16705814 0.22255337 0.12599239 0.32051742 0.2196211 0.2740938 0.2925528 0.016619176 0.124389336 0.21583864 0.26863447 0.30672336 0.31240037 0.30785736 0.26444635 0.2065443 0.30624372 0.32367423 0.05259262 0.29542205 0.26583442 0.07851289 0.09724035 0.22816694 0.21189727 0.118909955 0.12390046 0.26880774 0.10160935 0.10182081 0.037582077 -0.2508667 0.4178411 -0.14960654 -0.29906693 0.45037544 0.46107036 0.3990329 0.30127746 -0.074330255 -0.116759375 -0.010506891 -0.032938622 0.3160846 0.3692565 0.32014042 0.30413753 0.40997824 0.5080815 0.51563996 0.12964131 0.35340255 0.22283375 0.36852416 0.44433847 0.3300545 0.059143748 0.0043900385 0.41311076 0.3959121 0.48403084 0.2837301 0.3362792 0.35633892 0.59198046 0.67609894 0.7197946 0.6859277 0.28936863 0.13407134 0.21243118 0.7812414 0.85326844 0.8416363 0.7938839 0.22973344 0.63143766 0.5460206 0.5164428 0.70116085 0.67287254 0.62273973 0.733154 0.72347915 0.21238413 0.23378882 0.25432423 0.36295342 0.42092973 0.43167022 0.41660386 0.083596885 0.34155357 0.32966262 0.22333327 0.05600226 0.47959602 0.43538395 0.44875163 0.1679658 0.097713165 0.42180395 0.30041832 0.014193492 -0.0059638135 0.24297395 0.35160112 0.32805604 0.35665476 0.3821445 0.17488587 0.12975112 0.35796398 -0.05486869 0.34544086 0.10590625 0.27835408 0.051722985 0.21669579 0.22764769 0.08240181 0.28836843 0.07489082 0.2918406 0.27591515 0.24990268 0.1787957 0.1347058 0.015948951 0.0977275 0.06043513 0.04389444 0.35807514 0.59052825 0.14022127 0.14898752 -0.058859706 0.016998954 0.4609869 0.47980466 0.122205615 0.35760206 0.17040342 0.19196871 0.36938447 0.36266702 0.41306952 0.064803146 -0.03937979 0.49954623 0.49368003 0.5059715 0.47151977 -0.28332353 0.4586231 0.3580338 0.1644281 0.09609059 -0.111199 0.3951736 0.04542269 0.18471041 0.20124209 0.21859407 0.32254106 0.24689832 -0.018803999 0.1955502 0.18466866 0.41024876 0.26164535 0.30554867 0.20938513 0.33748835 0.52916735 0.68016875 0.25566232 0.15158421 0.20521107 0.24083433 0.21633065 0.7478559 0.86511165 0.8611053 0.73558784 0.3666181 0.35043263 0.35933244 0.5497527 0.45286173 0.74397516 0.74175584 0.6924937 0.63970387 0.7825911 0.7674788 0.7341932 0.7068013 0.22803709 0.36767715 0.39748946 0.17948546 0.19096401 0.21538447 0.37781572 0.38876563 0.10614315 0.2651147 0.07292578 0.09119338 0.39076507 -0.024061471 0.29658577 -0.011665598 0.58111054 0.553108 0.5081705 0.4818409 0.2537358 0.16621019 0.5328911 0.43740442 0.32854372 0.37909406 0.42574027 0.50271094 0.4667218 0.4653589 0.20259152 0.21814325 0.4079983 -0.056147654 0.14650002 0.25018883 0.41229576 0.34025013 0.16079101 0.3368311 -0.15433332 0.27787155 0.17516142 0.09573819 0.040375914 0.115192354 0.24249676 0.13065013 0.27712655 0.2724428 0.24338132 0.20258728 0.10233062 0.65933496 0.7210407 0.09350992 0.119715326 0.062384687 0.5212405 0.61995137 0.7085544 0.7289518 0.15510331 0.17738792 0.5099006 0.56505454 0.60847884 0.48095226 0.53131646 0.27891174 0.37887514 0.42250702 0.47034734 0.2083239 0.55636674 0.53242594 0.048615485 0.32894787 0.3968163 0.5718636 0.37696218 0.46018112 0.4607914 0.5701456 0.5000856 0.34001777 0.3253694 0.4326114 0.5038306 0.5011542 0.18858996 0.16448656 0.12986626 0.19831602 0.33502275 0.48120052 0.21002814 0.21294324 0.07985088 0.092169665 0.30439824 0.48015288 0.19185191 0.17988388 0.43350056 0.5483302 0.18243206 0.20241857 0.113366164 0.07683124 0.2857588 0.4394334 0.48100376 0.49614727 0.16315155 0.42020667 0.49471486 0.6568018 0.64370835 0.53347623 0.76460105 0.772969 0.7743918 0.73104656 0.15653074 0.14640108 0.34504563 0.13718967 0.2504874 0.10419954 0.17925617 0.1854432 0.4616608 0.43524906 0.029054742 0.46731243 0.0750212 0.56113386 0.54286385 0.3563319 0.12232217 0.5955887 0.57375294 0.53461385 0.47972578 0.40823263 0.5152936 0.6171302 0.612783 0.539534 0.26799178 0.22369039 0.22080524 0.49110013 0.4035704 0.29289848 0.37427872 0.5242442 0.4046328 0.18970732 0.12649797 0.2184774 -0.101006225 0.026813215 0.0839303 0.47025347 0.10644071 -0.09418293 -0.08365352 0.21406186 0.08322691 0.07809393 0.20356807 0.22528246 0.1581819 0.24981757 0.10358625 0.51089126 0.61036175 0.14910126 -0.024958923 0.20843084 0.5649971 0.67131543 0.7290131 0.77918166 0.07137107 0.057721116 0.7730364 0.76561284 0.10616907 0.14012845 0.067675136 0.6714933 0.7285929 0.60200864 0.65886796 0.41034836 0.43353164 0.5678679 0.48713917 0.2486361 0.64839864 0.395621 0.6311582 0.48000976 0.4601534 0.5743812 0.497453 0.507712 0.22346929 0.49212354 0.52120566 0.5105598 0.32988566 0.33901623 0.13380586 0.4156599 0.49250895 0.3210185 0.34722248 0.35099736 0.12957326 0.16988732 0.41704836 0.30705526 0.46675998 0.1556543 0.0020008143 0.113911234 0.2986443 0.425232 0.49305582 0.47348514 0.17799714 0.4406522 0.60277724 0.63819444 0.7224424 0.76671076 0.48612916 0.4697165 0.4637806 0.08996697 0.093186766 0.10022492 0.40680724 0.0014443019 0.06017252 0.26423848 0.47070426 0.40778318 0.3485653 0.1620811 0.5148468 0.49812198 -0.0031816997 0.5209631 -0.08814434 0.46424973 0.0974274 0.5781946 0.5585078 0.5991328 0.69341004 0.67225516 0.63949937 0.31899625 0.14029576 0.5978706 0.57290465 0.38174 0.5202403 0.59000874 0.17870079 0.1487324 0.0754922 0.26440847 0.5644735 0.64664215 0.038562033 -0.2138968 0.2693714 0.5836433 0.19265588 0.22046691 -0.03597659 -0.19382517 0.34774563 0.49623114 0.25256515 0.26936615 0.1139224 -0.13241823 0.46409875 0.15579188 0.13209987 0.124505825 -0.30641842 -0.4180101 0.012374185 0.5670011 -0.29789898 -0.23683472 -0.11538017 -0.05651693 0.046049714 0.37370545 0.56543237 0.6906432 0.75438213 0.021524677 -0.33802104 0.7723844 0.7664289 0.048873775 0.008829273 -0.019515835 0.73949194 0.07341361 0.6761858 0.4677819 0.58995616 0.6547259 0.6184251 0.5521188 0.47960356 0.25631303 0.5059249 0.4925574 0.32039586 0.33899847 0.4949554 0.35237044 0.35276413 0.42627174 0.4708714 0.47922394 0.36788145 0.38411382 -0.18123148 0.10840821 0.2612685 0.34336132 0.36744344 0.10134026 0.408521 0.28879946 0.2645957 0.0862698 0.104054116 0.38255346 0.47615555 0.4470687 0.2848354 0.091459654 0.12699813 0.14219925 0.25153708 0.33864087 0.32638738 0.37733698 0.4946318 0.54317534 0.53138804 0.53054297 0.5327537 0.54135615 0.5236584 0.4959296 0.4612252 0.4232687 0.39201826 0.06377268 0.3659483 0.4844072 0.4549964 0.2841887 0.5095577 0.23109627 0.25201416 0.50982034 0.47589988 0.11233708 0.14818433 0.7203709 0.31445512 0.20265323 0.6510348 0.58851075 0.6934588 0.7172083 0.6975077 0.1319937 0.18694903 0.6008144 0.65512514 0.63283604 0.45015523 0.73176336 0.16051234 0.05302423 0.5619653 0.636967 0.62369657 0.58278733 0.4000857 0.38699412 0.3108865 0.22248386 0.57480323 0.6977757 0.15599227 -0.09427498 -0.13704813 0.58211017 0.6229682 0.6094796 0.29468888 0.38080353 0.26966053 0.2611426 0.165055 -0.020926818 -0.052934635 0.29633015 0.06950199 -0.04548131 0.2575959 0.31571302 0.009564975 -0.045644656 -0.1900931 -0.16635913 -0.117325984 0.2454741 -0.08484144 0.27420038 0.4982646 0.66728276 0.71525943 -0.056254894 -0.01156614 -0.03525511 0.7291149 0.75068784 -0.024948463 -0.072016165 -0.068824984 0.71913314 0.73380375 0.650668 -0.31700832 0.60058033 0.5192095 0.649048 0.6083584 0.16801894 0.5609262 0.4534311 0.2372747 0.2178961 0.44374263 0.33188495 0.47533956 0.47865394 0.35560927 0.38910776 0.40704143 0.4499328 0.46646804 0.4076689 0.40353873 0.3646524 0.25638628 0.1921531 0.10762176 0.22663185 0.3183487 0.38504702 0.3027528 0.2314331 0.33609188 0.26433435 0.2589866 0.13502046 0.13988158 0.25177217 0.24337345 0.19143003 0.15987861 0.1606178 0.14318585 0.10084329 0.104132414 0.113282606 0.56457496 0.5999152 0.60155463 0.57909095 0.5353934 0.43413264 0.52117 0.4346723 0.38881704 0.4964724 0.5118548 0.45469883 0.46736312 0.4544313 0.12248887 0.38514888 0.50036335 0.4837678 0.44666374 0.38253367 0.34970325 0.22977228 0.21855731 0.21674755 0.18292683 0.16407453 0.4425074 0.3982644 0.45780444 0.42042327 0.39494422 0.25534734 -0.011447288 0.12736776 0.14362398 0.057866037 0.023401652 0.06704463 0.054858953 -0.00015390874 0.37813675 0.41565034 0.39863178 0.30235922 -0.10346946 0.06983398 0.036493555 0.32003945 0.3692668 0.24012749 0.25239685 0.006764233 0.09547213 0.24487187 -0.11811624 -0.06909704 -0.16754195 -0.10551536 -0.058921546 -0.03587287 0.34460193 0.56335527 0.661796 -0.08221775 -0.0923035 -0.052355006 -0.037723977 0.005477689 0.6470804 -0.338549 0.083995104 0.31314793 0.28680006 0.52387226 0.42283303 0.2598074 0.35753685 0.39214468 0.35539025 0.2732272 0.4188794 0.42887187 0.38360885 0.34599084 0.2944498 0.10518458 0.074152045 0.20948708 0.28931934 0.34435496 0.10504347 0.23123758 