# vtk DataFile Version 2.0
Really cool data
ASCII
DATASET POLYDATA
POINTS 4474 float
-6.969181 -11.031064 38.618416
-6.7862782 -11.221512 39.260067
-6.94761 -10.396365 37.842216
-7.2182984 -10.412849 38.603016
-7.169107 -10.501042 39.302856
-6.905457 -10.397507 39.84794
-6.8923893 -9.562514 37.855274
-7.1336493 -9.648576 38.441635
-7.0727453 -9.703332 39.274414
-6.8675585 -9.938836 40.15897
-6.771473 -9.162486 37.845497
-6.8995366 -9.10758 38.52956
-6.7445145 -8.924286 39.228024
-5.9129615 -11.747486 38.262074
-5.8349414 -11.2420435 37.266113
-6.3362737 -11.281378 37.80097
-6.4275107 -11.434573 38.326843
-6.1849966 -11.327119 40.22798
-6.370092 -10.831032 40.869816
-5.77494 -11.295868 48.95584
-5.9403296 -11.211093 49.653236
-5.887213 -11.143271 50.34467
-6.0514483 -10.418605 36.98596
-6.61624 -10.437495 37.43983
-6.1869574 -10.445987 41.53147
-5.9305973 -10.197188 41.943615
-5.9028444 -10.473017 48.898613
-6.098274 -10.516509 49.599922
-6.0542574 -10.510034 50.41441
-5.815196 -10.508199 50.875374
-6.3228474 -9.667206 37.18656
-6.5292087 -9.443992 37.43127
-6.297369 -9.619963 41.225693
-5.7143474 -9.69107 49.006077
-6.005839 -9.883131 49.719757
-5.9390817 -9.909053 50.314964
-5.7763166 -9.9664345 50.777702
-6.1760883 -9.030273 37.312504
-6.1935644 -8.703021 37.732323
-6.561325 -8.71142 38.56588
-6.025444 -8.398719 38.054123
-6.0257206 -8.2141695 38.414158
-5.650692 -11.704468 37.87555
-5.52479 -11.872005 38.37904
-5.150916 -12.197968 39.376705
-5.16439 -11.938207 40.39616
-5.3516936 -11.862141 49.62236
-5.2606335 -11.812459 50.092445
-5.45285 -11.205296 37.14518
-5.5967145 -11.4546585 37.51595
-5.7173867 -11.537909 40.61304
-4.940576 -11.524478 41.33906
-4.9658184 -11.022897 43.735325
-4.8547873 -10.896313 45.784126
-4.8993106 -11.305322 47.02789
-5.0991583 -11.364078 47.8073
-5.6689615 -11.589644 49.91171
-5.469765 -11.549148 50.41663
-5.322457 -11.13292 50.934566
-5.425832 -10.4119005 36.70799
-5.1512585 -10.29396 44.69343
-5.1946073 -10.127603 45.08028
-4.7190294 -10.12576 46.44026
-5.2134604 -10.545793 47.21746
-5.514718 -10.630236 48.410877
-5.357404 -10.469201 51.182686
-5.62955 -9.724459 36.85518
-5.317744 -9.256875 42.23585
-4.668071 -9.656289 43.04607
-5.034239 -9.491681 44.5582
-4.9509397 -9.741497 45.800404
-5.23411 -9.8084755 47.600895
-5.5159736 -9.311641 49.4833
-5.5781636 -9.464422 50.658276
-5.27617 -9.845433 51.0727
-5.158138 -8.935172 37.212746
-5.4743423 -8.563384 37.543262
-5.384356 -8.42255 41.163307
-4.745123 -8.949104 44.5477
-4.999693 -8.452949 48.65878
-5.4313917 -9.042607 49.82211
-5.2038083 -8.960456 50.254326
-5.202502 -8.336906 37.76808
-5.313138 -8.084864 38.32842
-5.157966 -8.122431 40.536194
-4.7715254 -7.9429135 49.39974
-4.7772665 -4.3219676 44.952526
-4.8870587 -4.2101064 45.42489
-4.7917147 -4.242867 45.96895
-4.825376 -3.7639601 44.4224
-5.1980014 -3.4272575 45.45711
-5.172328 -3.2988613 46.088543
-4.9565897 -2.9023924 47.032684
-5.180617 -2.328763 44.84855
-5.4090986 -2.3973982 45.530674
-5.394965 -2.1728442 46.232697
-5.042542 -2.2500246 47.09134
-4.8177023 -1.9157028 44.316853
-5.087037 -1.5722393 44.850525
-5.364598 -1.6906234 45.530178
-5.2786736 -1.7152337 46.343746
-4.8963833 -1.6490114 47.105923
-4.9023232 -1.0562238 45.022842
-5.0095906 -0.99654084 45.45621
-4.783088 -0.8636277 46.486893
-4.535584 -11.925518 41.315758
-4.03747 -11.835065 43.27761
-4.8841777 -11.793784 50.36033
-4.532699 -11.374926 43.42271
-4.72343 -11.186685 50.978146
-4.7145905 -10.114954 36.805725
-4.669295 -10.509578 51.260242
-4.449118 -9.936263 51.287067
-4.65642 -8.884254 37.220623
-4.358346 -8.474041 44.971455
-4.7202897 -8.91285 50.57887
-4.2834215 -8.62403 50.75644
-4.6379385 -7.960313 39.411564
-4.821983 -8.208777 41.269276
-3.8783863 -8.26447 44.62574
-4.1053853 -7.7911024 47.9954
-4.376663 -7.490314 49.32583
-3.9225874 -7.37131 50.047836
-4.063075 -7.315572 48.701714
-4.014972 -5.2588425 45.793552
-3.740989 -4.9281626 46.566174
-4.1920953 -4.6103816 46.48959
-4.612527 -3.0098891 47.40247
-4.2041593 -3.126113 47.613007
-4.3702655 -2.5651984 43.968216
-4.5417805 -2.2081459 47.577904
-4.2424474 -2.7128193 47.69615
-4.316939 -1.6886363 44.131306
-4.2622905 -1.5196015 47.57896
-4.1307387 -0.6614163 44.71833
-4.305411 -0.47039002 45.449444
-4.5511403 -0.70947266 46.465675
-4.1108675 -0.71781886 47.115173
-4.0926213 -0.22438124 45.68307
-3.939293 -0.15763032 46.06481
-2.7133262 -16.89558 34.540077
-2.745726 -16.854673 35.298363
-2.6301506 -16.941208 46.72938
-2.742391 -16.150866 34.00177
-2.9178743 -16.414911 34.477234
-2.9114914 -16.529152 35.390446
-2.8191082 -15.870873 45.10059
-2.7688684 -16.200901 45.65346
-2.8111668 -16.297312 46.532116
-2.6148057 -16.60932 47.031452
-2.7507946 -15.8920965 34.023106
-3.0274606 -15.748388 34.773663
-2.9455767 -15.601753 35.500507
-2.725062 -15.655362 36.2783
-2.916105 -15.527995 44.96155
-3.1434531 -15.345228 45.395615
-2.9721165 -15.273749 46.350723
-2.6441903 -15.000218 34.619
-2.7016625 -14.786951 35.72464
-2.6104767 -14.250522 46.891838
-3.7131248 -12.358678 38.65293
-3.388982 -12.28 39.587093
-3.2402518 -12.423862 42.77097
-3.256843 -12.332311 46.3482
-3.2543652 -11.962527 49.530228
-3.257306 -11.064618 50.54485
-3.7730412 -10.295096 36.79223
-3.276368 -9.220205 51.26968
-3.5412276 -8.279945 50.907692
-3.359532 -7.986831 37.963158
-3.3818226 -7.650195 38.66173
-3.6431777 -7.4786706 40.021294
-3.6365829 -8.295177 44.568443
-3.3712492 -7.5142493 50.80545
-2.7637556 -6.8487663 39.57308
-2.6643617 -6.705237 40.89176
-2.6046221 -7.0000725 44.28983
-2.797176 -5.939413 51.865063
-2.6003187 -6.1217046 42.611984
-2.9874609 -5.3329453 44.157528
-2.8026383 -5.601608 48.40757
-3.0360405 -5.310076 51.648922
-2.8312547 -5.596489 52.093613
-3.266808 -4.4024253 43.700066
-3.6142564 -4.580951 47.00029
-2.7516778 -4.891549 49.51043
-3.1524334 -4.911606 50.38944
-2.929839 -4.6112313 51.403675
-2.7417397 -4.8674946 52.10941
-3.3897483 -3.3937383 43.335213
-3.5624514 -3.2018454 47.841965
-3.7277107 -2.267244 47.868736
-3.2195554 -1.2491626 43.961113
-3.3392375 -1.2988139 47.87948
-3.3874655 -0.69393265 44.310993
-3.8059514 -0.7244711 44.52285
-3.328304 -0.8121438 47.70846
-3.43042 -0.3053441 44.705402
-3.3757398 0.14427105 45.681675
-3.19873 0.3724659 46.4346
-3.198396 0.07769704 47.130497
-1.7851439 -17.641626 46.09149
-1.985207 -17.696817 46.615887
-1.8372544 -17.713715 47.335026
-2.1656094 -17.00497 33.977863
-2.3664403 -17.191494 34.512703
-2.348792 -17.211458 35.252186
-2.1840262 -16.88372 36.335102
-2.1052153 -16.858011 45.16271
-2.271086 -17.060156 45.71753
-2.307317 -17.372631 46.634956
-2.2660027 -17.331688 47.26828
-1.9604424 -17.073586 48.107864
-1.9246417 -16.099684 33.374542
-2.2565863 -16.419249 33.694057
-2.2403522 -16.342094 37.14084
-2.2586422 -15.933592 44.271687
-2.2298238 -16.317074 44.616104
-2.3838396 -16.537348 45.38314
-2.478985 -16.520267 47.592274
-2.4095116 -16.231749 48.193108
-1.9203327 -16.365189 48.865658
-2.027454 -15.824384 33.412502
-2.20979 -15.417953 33.598465
-2.5383549 -15.116174 43.977627
-2.2661192 -15.771533 48.526596
-1.6906313 -15.489196 49.335976
-1.8281398 -15.161889 33.395397
-1.9295762 -14.751906 33.74432
-2.414229 -14.668694 34.584293
-2.4845304 -14.375855 35.48167
-2.3613555 -14.370448 47.56498
-2.0667927 -14.229006 48.423313
-1.7682822 -13.523597 35.90663
-1.8205814 -13.653015 42.108223
-2.3320687 -13.748993 47.085598
-2.6975443 -12.009646 37.916008
-2.3757017 -12.400449 39.652435
-1.9655266 -12.291251 48.624702
-2.5244825 -11.932323 49.33471
-2.404121 -11.797786 49.89608
-2.5264885 -10.798197 50.69042
-2.2441182 -10.623843 50.896145
-2.2272542 -9.574266 36.972084
-2.8061452 -9.594277 51.170517
-2.644908 -9.035829 37.01278
-2.539817 -7.753094 38.049545
-2.2736819 -6.4586515 39.369728
-2.2860832 -6.3243284 40.19321
-2.3760376 -6.256082 52.22628
-2.009972 -6.0535817 39.655468
-1.6971179 -5.392046 40.356422
-2.0991569 -5.7092104 41.721302
-2.460002 -5.349581 52.46185
-2.0743628 -5.277836 52.753216
-2.374968 -4.694811 52.47575
-2.078005 -4.777115 52.753735
-2.5102746 -3.8299677 50.6911
-2.2196887 -3.6995702 51.363365
-1.998987 -4.0667334 52.25854
-2.4503613 -2.6812115 43.295498
-1.8018949 -3.4033818 51.255466
-2.3708897 -0.7110433 44.13078
-2.5252547 -0.7094429 48.194706
-2.6054041 0.5248827 45.97689
-2.354246 0.36918068 47.358284
-2.1472669 0.24003187 47.87315
-1.8096089 0.57924503 45.385006
-1.4389291 -17.583828 34.636116
-1.2611605 -17.688898 45.70597
-1.5081651 -17.915968 46.57021
-1.4794278 -17.863317 47.300743
-1.3737588 -17.231937 33.925045
-1.7852998 -17.390015 34.30703
-1.5939285 -17.46593 35.545406
-1.764299 -17.12062 36.25946
-1.1639252 -16.90002 37.237926
-1.6255459 -16.77045 44.36589
-1.5861852 -17.383625 45.417294
-1.0972011 -17.35902 48.465584
-1.0558044 -16.941002 49.235832
-1.5671333 -16.417675 33.362015
-1.4912174 -16.75583 33.49837
-1.4474555 -15.958175 43.59131
-1.3648345 -16.62842 49.227135
-0.93110484 -16.510458 49.657104
-1.5209649 -15.680324 33.28837
-1.0730909 -15.638369 38.78189
-1.303976 -15.151761 49.78912
-1.6097567 -15.0871105 33.364613
-1.5083382 -14.880443 33.486008
-0.80357337 -14.408297 39.388493
-1.3237771 -14.420576 41.961067
-0.7520577 -14.090076 50.516544
-1.0407662 -13.101241 50.186893
-1.3470511 -12.267609 37.50473
-1.6590618 -10.376651 51.0761
-0.90079904 -9.26049 36.544647
-1.3986797 -8.428033 37.306717
-1.5169005 -7.3511662 51.871113
-1.724791 -6.403282 52.408695
-1.4371773 -6.102582 38.947475
-1.6279968 -5.779879 39.486984
-1.5447575 -5.357987 52.87063
-1.2386042 -4.729066 41.344677
-1.6244987 -4.168634 42.65191
-1.543719 -4.6655145 52.86445
-1.5203744 -4.199759 52.755882
-1.5025067 -2.4186778 48.591694
-1.2857355 -2.7834182 49.31731
-1.0179052 -2.9083953 51.451637
-1.0509338 -3.1692975 51.882366
-1.4826765 -1.6193317 43.683228
-1.7321298 0.28111935 44.690086
-1.195086 0.41747695 48.467598
-1.0526907 1.2119203 45.163017
-1.2458293 1.1208626 45.732307
-1.5076497 1.0651441 46.42791
-1.054646 1.2315875 47.451134
-0.7288878 1.1930265 48.18419
-0.7411786 -17.63895 34.728203
[...]
POINT_DATA 4474
SCALARS features_00 float 1
LOOKUP_TABLE default
0.8101547 0.73169446 0.83177173 0.8200042 0.76453686 0.6894511 0.7471374 0.76600295 0.7573575 0.63934505 0.7093081 0.71450025 0.6936636 0.65874255 0.7627646 0.75615335 0.73339456 0.59331393 0.5862756 0.70749426 0.82427025 0.86653596 0.82049906 0.828789 0.53879356 0.45493442 0.6539265 0.79337883 0.85580546 0.8666661 0.74709976 0.7262854 0.5085419 0.6012661 0.7318671 0.774866 0.7962537 0.67805576 0.6546314 0.6619469 0.6190748 0.5916774 0.6514417 0.5917705 0.50939214 0.45107096 0.76993155 0.8058859 0.7439394 0.6997559 0.51351583 0.37046036 0.34344313 0.15070096 0.16609375 0.32124305 0.83926886 0.85166365 0.86470866 0.79613304 0.3302182 0.29507035 0.14242703 0.21320014 0.5128879 0.8477093 0.7352166 0.33782578 0.2248806 0.2957692 0.23696485 0.27535474 0.59897494 0.70442057 0.7520611 0.610052 0.5961726 0.40408558 0.25878185 0.40774846 0.58490056 0.5835186 0.5363327 0.49901918 0.32195526 0.41926944 0.5260104 0.5364559 0.52199686 0.61031127 0.6347109 0.64023656 0.6044786 0.70000446 0.7241544 0.7301049 0.63747334 0.62852776 0.66969603 0.7283081 0.7316702 0.64840937 0.6442659 0.67301494 0.67560506 0.27611357 -0.023072027 0.76680475 0.15233853 0.8070011 0.69615996 0.77895606 0.68181276 0.5369762 0.25877827 0.5618183 0.5114885 0.31696036 0.31442115 0.13642202 0.29678077 0.37276578 0.35757047 0.29699355 0.4258064 0.4103188 0.4736234 0.5479363 0.5122628 0.60188305 0.5599921 0.52296007 0.56298447 0.5642023 0.5628741 0.59020495 0.6465982 0.58591694 0.5629508 0.5525315 0.89344144 0.85046196 0.48710644 0.8652185 0.8899002 0.85319185 0.3684547 0.4106297 0.46709636 0.4943161 0.84887815 0.85782963 0.826008 0.77879775 0.34819162 0.37247974 0.46299553 0.7972527 0.74630296 0.35435194 0.33844668 0.30685166 -0.18282822 0.011134821 0.31473905 0.43342355 0.5049781 0.46931684 0.4405388 0.26334128 0.17154233 0.097559944 0.0964044 0.29641885 0.07082889 0.020767018 -0.28114864 0.49539417 -0.068054 0.25215408 -0.21984902 0.5245356 0.5361837 0.4286701 0.3825587 0.27689666 0.46987146 0.5663543 0.5632123 0.46593326 0.42708874 0.47781345 0.43733308 0.4499445 0.4756877 0.5306585 0.47193342 0.4777875 0.47326273 0.45360884 0.46120527 0.46613967 0.4943173 0.5157339 0.8869438 0.8853948 0.82604444 0.64369774 0.393826 0.4350422 0.4906273 0.514377 0.50784266 0.8296778 0.8632763 0.4954887 0.3189217 0.34724987 0.4011368 0.50754046 0.49808624 0.46180224 0.8201788 0.803679 0.2666843 0.4666057 0.39968678 0.7876804 0.7634238 0.7701281 0.7196244 0.37651312 0.31849283 0.6250264 -0.033154983 0.23772454 0.12908486 0.19249469 -0.046758384 0.1799857 0.2257088 0.35195476 0.32033524 0.14027056 0.35538572 0.23024955 0.1185342 0.07137722 0.060922313 0.5173419 0.089126915 0.1319764 0.08767907 0.56160814 0.5639211 0.57510155 0.58045375 0.49104044 0.53860474 0.5767524 0.25229064 0.48462382 0.34985685 0.2945506 0.375798 0.33196276 0.2813203 0.3022473 0.81262493 0.43017417 0.48511505 0.50405854 0.8533219 0.8675367 0.7084652 0.5864725 0.36765528 0.34079492 0.41716063 0.44581437 0.415991 0.8382937 0.85442173 0.26339674 0.42950577 0.37595725 0.7985747 0.24758843 0.33604074 0.7762139 0.7580842 0.17732705 -0.05696519 0.17928185 0.07648024 -0.2363089 0.16610405 0.07949026 0.09718876 0.36505684 0.5364754 0.12518111 0.13040198 0.562695 0.10061839 -0.09542448 0.57717323 0.57834065 -0.015932396 -0.0020641387 0.4489867 0.52148664 0.17026791 0.30589688 0.16536292 0.25047588 0.2484481 0.25332022 0.23329917 0.22626306 0.7089381 0.6418946 0.40613687 0.40998626 0.80952024 0.7389786 0.4383347 0.38248718 0.23496124 0.3525563 0.3094315 0.79680383 0.814914 0.26405954 0.77204084 0.19045043 0.22850662 0.7061161 0.628117 0.46272457 0.12500471 0.06114837 0.29682285 0.31694087 -0.06157779 0.3365402 0.11381469 0.19042069 0.056334283 0.43398064 0.48553687 0.3890427 0.53017896 0.31021714 0.13705233 0.52004135 0.5222575 -0.11547236 0.48150894 0.46424446 0.22820944 0.28626555 0.22688311 0.2749624 0.37692297 0.21834692 0.2145606 0.21921775 0.23599356 0.25156632 0.2833415 0.55370474 0.6163132 0.57351613 0.4979573 0.48108953 0.6404488 0.63798964 0.5602325 0.53314835 0.46847147 0.09452599 0.06458621 0.73414457 0.6705084 0.49773413 0.451411 0.27164918 0.21093589 0.19202994 0.18342835 0.17674424 0.07378674 0.74606967 0.18904917 0.72738445 0.5319625 0.11678202 0.16822892 0.10608177 0.09103073 0.08310194 0.4490707 0.12712559 0.40638143 0.40521032 0.08037083 0.43327874 0.4313513 0.10138233 0.36265683 0.25157452 0.18148968 0.26259175 0.4236572 0.33379775 0.35334766 0.45894665 0.3794091 0.40274155 0.4757941 0.431867 0.4687381 0.38923496 0.12169746 0.42067906 0.43132228 0.086806335 0.53120553 0.16578093 0.54555106 0.204798 0.21835405 0.455215 0.5205579 0.20590726 0.18670794 0.3366065 0.41904286 0.20221761 0.1915885 0.22256123 0.2825441 0.6714288 0.65666306 0.6417931 0.6421608 0.6339586 0.59733796 0.6625166 0.63758314 0.5792186 0.5160718 0.4402454 0.36542332 0.6721759 0.6439991 0.48408556 0.45327085 0.41327226 0.675791 0.6643673 0.5580244 0.55657804 0.6737566 0.67314756 0.698733 0.7079276 0.6969744 0.68234813 0.678825 0.6828108 0.69866705 0.274487 0.21977158 0.1299821 0.05957077 0.10525123 0.31466034 0.44924432 0.43112934 0.24337512 0.21354556 0.2646498 0.4380353 0.46055835 0.23215497 0.3048664 0.103472866 0.11682251 0.18455157 0.22568683 0.43586096 0.33332565 0.18021281 0.2771232 0.4928083 0.22012681 0.27519804 0.50093585 0.49590233 0.2795803 0.5114223 0.464646 0.45792308 0.41588646 0.14990383 0.23755948 0.2889468 0.4986738 0.30652636 0.38138926 0.48783126 0.48291767 0.3072504 0.4849118 0.03958281 0.55756056 0.5504974 0.5237231 0.048020095 0.37984818 0.44893956 0.46392304 0.06115485 0.06437386 0.16935182 0.23494837 0.74148655 0.6083224 0.45672596 0.11205224 0.5927294 0.6297796 0.56136173 0.62145144 0.68466294 0.6533406 0.6535945 0.6061317 0.4068159 0.4714511 0.50883245 0.49060282 0.68082833 0.6776923 0.40929413 0.41859645 0.42232972 0.67818224 0.41479257 0.43032956 0.42319244 0.681309 0.43936622 0.67730755 0.6673548 0.629053 0.5898192 0.6417005 0.6526738 0.66766125 0.682568 0.6860775 0.65333676 0.6688397 0.66829413 0.27443075 0.34124666 0.20323053 0.28681013 0.28699625 0.13691518 0.38157517 0.47518945 0.5077235 0.253156 0.5052942 0.30662745 0.257903 0.23965767 0.064156815 0.4949137 0.5748111 0.31543207 0.20649049 0.29563776 0.4270073 0.3102391 0.30053538 0.38957208 0.5281745 0.37591887 0.5280762 0.16228421 0.4776491 -0.03154798 0.4670449 0.4400352 -0.08112389 0.094786696 0.45385587 0.5099933 0.16580747 0.2047107 0.50407994 0.1862999 0.54456896 0.47433764 0.075136244 0.26346955 0.091466516 0.27193353 0.045125622 0.32033685 0.4730221 0.46842596 0.63134515 0.64294255 0.29566428 0.44141394 0.7110772 0.7087233 0.20217808 0.06860721 0.2031137 0.27765715 0.7432202 0.75593835 0.20974356 0.11600782 0.09159427 0.12947932 0.14652629 0.18102562 0.75506824 0.7564645 0.6318509 0.4716609 0.2399728 0.13983989 0.0994651 0.11147719 0.14687915 0.89252716 0.7802369 0.8808645 0.84608257 0.81489027 0.6463339 0.7147545 0.7708795 0.7189763 0.7093625 0.52196157 0.5308595 0.6269157 0.6547778 0.6607007 0.6030086 0.525086 0.37198865 0.5839636 0.5839304 0.6670896 0.3671537 0.43691558 0.4468603 0.667493 0.33365846 0.41837367 0.40767056 0.661031 0.39339727 0.4146287 0.39434266 0.6478253 0.3329844 0.35847342 0.37097996 0.61507225 0.5823666 0.6142218 0.64790934 0.60576427 0.6169468 0.597057 0.6334946 0.6428164 0.59922266 0.6617231 0.53694296 0.4718472 0.5834748 0.45868605 0.25468698 0.2686036 0.25350887 0.100083455 0.41980648 0.48807782 0.5348574 0.31251293 0.56256616 0.6128622 0.28420454 0.24834943 0.60591316 0.11576907 0.5273167 0.23005679 0.36329132 0.43702775 0.49242133 0.48665518 0.47695425 0.51085633 0.50024176 0.5015136 0.5223914 0.51743615 0.5318011 0.5148127 -0.18035102 -0.14088282 0.4687442 0.28415227 0.027661577 0.45898476 0.46478975 0.435937 0.24949794 0.073407784 0.43950665 0.44686276 0.3580454 -0.024968743 0.019047815 0.475557 0.42828655 0.28807586 -0.06282243 0.5385196 0.081303656 0.082808696 0.26607996 0.3322658 -0.029928729 0.43797177 0.40502125 0.46255624 0.2679884 0.425372 0.5106299 0.29422516 0.69789624 0.7070116 0.19072565 0.72443694 0.733294 0.17173113 0.18806094 0.19285715 0.7292166 0.70435965 0.6856892 0.15622258 0.11633958 0.1712707 0.19493395 0.6032754 0.1753079 0.11484599 0.9877075 0.9202318 0.85459673 0.77069664 0.932943 0.8245646 0.7750468 0.6951794 0.76528394 0.74791646 0.18362147 0.36998707 0.682924 0.6072482 0.498348 0.4062367 0.63278675 0.6430776 0.48080182 0.6195203 0.3691917 0.61259186 0.38495517 0.36538228 0.3470564 0.53883755 0.54271305 0.35102206 0.34946144 0.69856536 0.66491127 0.6316798 0.69000816 0.6565696 0.6080159 0.60226667 0.6803894 0.6655623 0.46494973 0.14219877 0.112371586 0.48416078 0.5500332 0.35729325 0.33937743 0.30695802 0.5866258 0.45828125 0.5313507 0.48216474 0.30453867 0.69077253 0.46330243 0.6707899 0.501649 0.5759473 0.54370224 0.54093206 0.5486063 0.5270184 -0.17521937 -0.041697286 -0.088155955 0.50997686 0.49165654 0.053708643 -0.08256514 -0.2800621 0.27598614 0.27503362 0.5694678 0.4607665 0.43497843 0.41124547 0.30767795 0.27933675 0.058507305 0.3281768 -0.21721777 0.07823063 0.08477226 0.21253404 0.12697151 0.31587428 0.16183594 0.3677251 0.24083404 0.12744577 0.2761112 0.26606777 0.32105237 0.6019188 0.5367163 0.72213995 0.5629978 0.15997376 0.7447262 0.7155887 0.7089226 0.19358566 0.15413395 0.6807076 0.5923959 0.50676525 0.20952621 0.20812398 0.4498806 0.12902115 0.07459734 0.071765974 0.10629164 0.16045184 0.3634719 0.23140861 0.10873735 0.4543063 0.53843665 0.42554277 0.4369716 0.59060717 0.64463747 0.63859916 0.9601599 0.98567355 0.9233223 0.86842746 0.81110364 0.8109159 0.7991978 0.74032664 0.23742647 0.17689563 0.6631673 0.5176639 0.4122123 0.32247925 0.20933464 0.582406 0.5573988 0.4594283 0.3196025 0.43276158 0.3091975 0.31186935 0.30845082 0.4224826 0.2954068 0.19926608 0.7075869 0.6760038 0.6500952 0.691026 0.70487416 0.58199346 0.67083406 0.6032357 0.114530556 0.06684014 0.27619424 0.44727612 0.46722814 0.50874364 0.34603238 0.5733036 0.345096 0.34600383 0.579262 0.19785018 0.42260525 0.6657711 0.5282403 0.35729855 0.19083759 0.20787899 0.7461919 0.6651571 0.42698848 0.45558012 0.77524626 0.778136 0.22481704 0.5132948 0.7122076 0.2802326 0.53588957 0.67995876 0.00043510366 -0.01198547 0.024642047 0.23642948 0.34316662 0.5992796 0.56132025 0.4762553 0.18064399 -0.13787253 0.26635554 0.32993633 0.37719947 0.4596098 0.67326295 0.40665877 0.35775483 0.13067043 0.4015451 0.56167144 0.55579627 0.41627565 0.56086063 0.5822891 0.64671135 0.67619425 0.4796052 0.46134505 0.46066457 0.28718573 0.5923835 0.7101674 0.7251307 0.750366 0.45379922 0.42489088 0.40643537 0.28754222 0.4021682 0.32153848 0.0799977 0.06669036 0.7391996 0.7684082 0.7775178 0.12472817 0.25846076 0.78257143 0.78608805 0.17302136 0.32579228 0.1959248 0.18625098 0.42602512 0.22679895 0.4637239 0.24706031 0.2608821 0.37816647 0.6678541 0.72116 0.091961026 0.7434268 0.6819817 0.62361777 0.14489503 0.5735074 0.52576935 0.47221094 0.15774433 0.13925388 0.15742604 0.11411907 0.44749594 0.5070715 0.56219816 0.53153884 0.5664859 0.62829316 0.7477063 0.632275 0.9350553 0.9288659 0.78175354 0.8249879 0.8290247 0.7810736 0.6142911 0.64529514 0.62459457 0.6517014 0.35744092 0.55605614 0.6240228 0.5069962 0.23708126 0.26905525 0.28055426 0.6013499 0.29626286 0.49392754 0.26477984 0.28141195 0.3068958 0.5890815 0.18915793 0.20217429 0.16805945 0.14767502 0.28201544 0.72067475 0.7660342 0.6843122 0.64669335 0.6438527 0.43656763 0.3617015 0.5169868 0.515995 0.5279689 0.5303082 0.30482495 0.3041886 0.3435106 0.5219754 0.2809254 -0.039171536 0.30109575 0.6726044 0.5993462 0.12625112 0.038509898 0.36796612 0.2810014 0.80421567 0.7325188 0.6493263 0.53909117 0.16658776 0.08343133 0.40444478 0.5283549 0.43790907 0.81708956 0.52800554 0.7660489 0.79073346 0.1193661 0.40693063 0.67421925 0.75024205 0.689272 0.39310676 0.4221228 0.2055889 0.07522116 0.47322434 0.78672945 0.8561826 0.8613279 0.8315696 0.7425182 0.5575693 0.37521374 0.71619725 0.7258905 0.7148379 0.62655205 0.6218513 0.5162385 0.504687 0.53753614 0.5847039 0.5620562 0.57207155 0.6033163 0.51638687 0.50306714 0.40293723 0.48666137 0.61956084 0.64913833 0.728763 0.48884803 0.47298956 0.46872246 0.35481516 0.39892882 0.5163523 0.74415463 0.7684846 0.107656464 0.6284462 0.78207415 0.7852528 0.3481306 0.07766175 0.2622942 0.7345995 0.77468145 0.78501505 0.25338647 0.2739091 0.38121158 0.40674537 0.20910516 0.19018888 0.20648648 0.46016484 0.52654696 0.25337052 0.23994315 0.5252894 0.26926792 0.27132556 0.5157511 0.27520388 0.40733692 0.34060246 0.090471454 0.61416066 0.49216533 0.6820044 0.5878874 0.007254526 0.11327054 0.6896197 0.6292851 0.26200935 0.67415607 0.5929146 0.51250327 0.16625258 0.28840005 0.4354548 0.27366412 0.17054586 0.26204863 0.3751849 0.1486668 0.42950588 0.11364998 0.18858063 0.49901706 0.47590792 0.41139576 0.5070572 0.57834256 0.6184095 0.34503028 0.5807494 0.48921835 0.15671507 -0.00068604946 0.09315893 0.2222539 0.6492015 0.52461624 0.28416896 0.71131355 0.37004977 0.69563115 0.16958831 0.37126476 0.4195005 0.64578116 0.4417513 0.17328647 0.14261374 0.40680027 0.36610392 0.31557822 0.2764499 0.74662346 0.76397574 0.7109051 0.6532825 0.65325403 0.69170004 0.57563007 0.6548976 0.54395545 0.5436435 0.67176986 0.4760008 0.44207793 0.5598639 0.538147 0.5919529 0.54887116 0.54099023 0.38023227 0.3742659 0.28225586 0.11681805 0.57125956 0.5672674 0.5447663 0.53612554 0.29568022 0.3221968 0.16962919 0.122061126 0.35825673 0.48764533 0.5332022 0.38079357 0.35969272 0.19843706 0.81373096 0.75806224 0.5635318 0.2126473 0.20764597 0.84582114 0.8582044 0.8068038 0.1709182 0.22295156 0.5047936 0.7671674 0.82087576 0.8221201 0.7346221 0.5166732 0.5590722 0.72687644 0.73885715 0.9127307 0.91453063 0.89928764 0.7385082 0.64585453 0.49151796 0.4545488 0.44893682 0.38624156 0.3628468 0.5603395 0.61172897 0.8426491 0.88323873 0.85963976 0.74092317 0.41279137 0.6257787 0.67690253 0.6342179 0.47762102 0.62165433 0.41843385 0.715257 0.2976064 0.34292066 0.7938305 0.2991188 0.7951461 0.8008599 0.28457266 0.18325238 0.25541985 0.36119613 0.4595575 0.678671 0.7374623 0.77951753 0.8028324 0.24882445 0.19923198 0.24954315 0.31481236 0.41522634 0.12076056 0.53416014 0.25532722 0.2634311 0.07456982 0.56943 0.2929212 0.2859131 0.2993884 0.39989942 0.4355902 0.34710807 0.5374353 0.4251769 0.2694443 0.56106466 0.4489476 0.294908 0.3628312 0.4497795 0.39600807 0.38238573 0.45384705 0.3298903 0.4319113 0.41636282 0.1479091 0.40650135 0.44001472 0.28318056 0.47544843 0.5365441 0.49174538 0.47892934 0.5930396 0.55019516 0.20946473 0.24043825 0.29441133 0.49732935 0.18732302 0.07822017 -0.055637766 0.31840244 0.6257019 0.3276732 0.69257987 0.3730283 0.74551874 0.4352322 0.4306847 0.7492484 0.48560116 0.47719836 0.67618257 0.4921712 0.4405177 0.21692127 0.43740195 0.4785601 0.4777432 0.39789715 0.3375739 0.78099 0.7250694 0.8064779 0.75895363 0.7317039 0.65294313 0.7188438 0.5790959 0.54807866 0.49063632 0.084994696 0.39111465 0.17503813 0.35914046 0.39388847 0.38627213 0.35078734 0.21735877 0.40462944 0.48973852 0.4256689 0.33114633 0.29513448 0.23720327 0.5207759 0.27445704 0.22474264 0.562605 0.525482 0.43102837 0.34348568 0.510875 0.5001424 0.4719403 0.44969463 0.41418666 0.35596588 0.89963704 0.90270364 0.8868472 0.49343318 0.4823267 0.46499264 0.41959697 0.8723446 0.7497157 0.66268265 0.6336782 0.3948387 0.60251844 0.6119761 0.40306145 0.22631243 0.67998683 0.2610238 0.7679792 0.7925019 0.14297283 0.2123493 0.43482798 0.6756449 0.7821249 0.22803617 0.27492955 0.31497702 0.21366088 0.26508546 0.12393455 0.41763413 0.36214465 0.36728585 0.26124164 0.19514784 0.47535202 0.53396463 0.38903165 0.3895883 0.30405042 0.31343472 0.2847674 0.32005587 0.32531476 -0.101407304 0.34262815 0.35190016 0.33202425 0.035839006 0.35461837 0.29197994 0.2662267 0.12167439 0.28033918 0.20660448 0.055781875 0.49692687 0.26839125 0.519672 0.36483943 0.511409 0.4294634 0.22859192 0.41549125 0.40099156 0.1080207 0.413684 0.17586905 0.4373774 0.47573078 0.4417963 0.5120851 0.5457847 0.4696803 0.42592347 0.4618791 0.27008075 0.27012047 0.26237622 0.26199093 0.23390992 0.2846092 0.27360255 0.65893537 0.60728455 0.21464568 0.30386242 0.6866009 0.6585548 0.37428823 0.70498294 0.47853225 0.7169582 0.7021667 0.5137327 0.5086434 0.6857841 0.5903591 0.46216732 0.46480367 0.33281082 0.31622994 0.52040684 0.5417775 0.5312099 0.41860223 0.411457 0.57010746 0.6149641 0.5984777 0.7901644 0.77941287 0.7519795 0.70317805 0.74006 0.71567845 0.71064794 0.7292993 0.6586712 0.6836953 0.63575447 0.6508729 0.67093897 0.59450245 0.61165977 0.57156014 0.39314196 0.36049634 0.4456956 0.39999902 0.32941318 0.5057544 0.4605726 0.3928669 0.3471753 0.5246182 0.5078915 0.4793813 0.43060654 0.5102825 0.49368656 0.45964268 0.841089 0.8382454 0.7873942 0.8074257 0.7929222 0.72405756 0.62370694 0.5999813 0.77158165 0.59466004 0.6006609 0.5967446 0.58657753 0.5615903 0.5517526 0.5932276 0.5354205 0.5938882 0.6501972 0.45783532 0.37334222 0.6865403 0.34137192 0.18326527 0.67115104 0.73749983 0.16034259 0.68431234 0.09391504 0.15941246 0.19669712 0.25553915 0.26035473 0.27020526 0.29217649 0.35387728 0.34049448 0.22388434 0.1839582 0.12089041 0.30797136 0.27122256 0.4003984 0.38179487 0.31661397 0.31020808 0.28454745 0.21047363 0.34927642 0.37557077 0.32677162 0.32334858 0.0066410713 0.33880827 0.33498636 0.095923804 0.34389007 0.11959983 0.26746982 0.23810339 0.29853016 0.5119542 0.3688454 0.48034465 0.3852553 0.11455481 0.3927388 0.09442292 0.39326257 0.087907575 0.10541676 0.4221604 0.15816617 0.44708565 0.46362743 0.4738924 0.46557176 0.3895556 0.48521376 0.46190828 0.45620352 0.3751045 0.26152962 0.270807 0.23622333 0.23202497 0.24005634 0.2082381 0.21272919 0.19277233 0.24388506 0.656665 0.61931205 0.5918242 0.36487332 0.68649757 0.6643795 0.6370379 0.46545744 0.6970692 0.6814502 0.6631445 0.5767148 0.52305293 0.5032752 0.5241236 0.51695436 0.49875075 0.24239534 0.6262752 0.5879383 0.6895859 0.69750357 0.67482495 0.7005786 0.6898887 0.6756623 0.6479503 0.6574328 0.65193784 0.6345504 0.5011579 0.48410106 0.6462972 0.53683776 0.6083275 0.6090112 0.42424357 0.52183914 0.49562716 0.36782557 0.5073491 0.47316268 0.3155045 0.54831713 0.39175898 0.55160904 0.30260748 0.301962 0.2919513 0.2593951 0.30692306 0.33571526 0.16905344 0.12413267 0.081177294 -0.2025152 0.35260063 0.34306687 0.31140167 0.2912434 0.18120006 0.385081 0.36276376 0.34163317 0.34653926 0.33076462 0.39328295 0.38842776 0.3789941 0.34899414 0.33593282 0.13511126 0.33502972 0.28367692 0.11121543 0.1943539 0.26356718 0.4279537 0.32354885 0.29574037 0.3477785 0.3330794 -0.026231501 0.36249864 0.3442603 0.3779904 0.3867723 0.09731929 0.4554629 0.48164487 0.46879593 0.44245267 0.21146016 0.28074896 0.38201755 0.3727592 0.23685604 0.39081585 0.36187625 0.26270297 0.34174 0.27857167 0.15374702 0.12741163 0.19864565 0.15218134 0.09612023 0.22316796 0.5757992 0.29847276 0.5767977 0.4539679 0.58850324 0.5849588 0.5704195 0.48230577 0.55377424 0.63928187 0.67895555 0.69454587 0.6142086 0.73719347 0.7511164 0.7388276 0.7341113 0.7395383 0.65524626 0.57652324 0.65352404 0.50540584 0.5788239 0.047881566 0.2005637 0.5596807 0.112919845 0.18948363 0.2710818 0.4771183 0.24044093 0.2645481 0.31867275 0.28325638 0.28578892 0.3129732 0.17085126 0.31958523 0.02168554 -0.09685367 0.30640954 0.16766305 0.15168414 0.11189183 0.32310963 0.31324166 0.25259295 0.1815935 0.41926286 0.3927701 0.38132507 0.35182413 0.3206512 0.24133621 0.13039161 0.43762964 0.41181406 0.034797966 0.089141764 -0.06431017 -0.32057202 0.24365562 -0.20324767 0.31692427 0.29557726 -0.040191296 0.31605947 -0.0270847 0.37657735 0.02282467 0.001927752 0.4308425 0.43414482 0.026721902 0.4723822 0.40575308 0.34772873 0.26051986 0.2610649 0.1571722 0.2825388 0.106452435 0.26527786 0.19413704 0.10759873 0.16455907 0.1207475 0.23393449 0.19370359 0.24340692 -0.13818061 0.3003987 0.65024424 0.7361555 0.75890356 0.7486384 0.7966124 0.7546604 0.6453427 0.58557427 0.69051135 0.47448