# vtk DataFile Version 2.0
Really cool data
ASCII
DATASET POLYDATA
POINTS 4809 float
-19.802528 22.393175 10.795434
-19.943623 22.89747 10.046509
-20.126049 22.813063 10.605772
-19.995684 22.81608 11.264499
-20.013796 23.462418 9.883766
-20.316973 23.405233 10.556584
-20.193586 23.357721 11.285287
-19.803728 23.434332 11.709324
-19.747454 24.28003 9.550244
-20.09538 24.196566 10.515585
-19.928614 24.159767 11.247713
-19.763266 23.88021 11.674345
-19.75331 24.820862 10.000412
-19.134672 22.264118 9.990414
-19.283873 22.136717 10.6452675
-19.300236 22.213955 11.299802
-18.850584 22.738401 9.264849
-19.524353 22.7338 9.747695
-19.50769 22.512577 11.541817
-19.105232 22.644896 11.920378
-19.139627 23.50968 8.961557
-19.441507 23.414295 11.968299
-19.369757 24.097221 9.019047
-19.468262 24.464188 11.487359
-19.399406 24.03626 11.819391
-19.040314 25.336329 8.939508
-19.325113 25.32083 9.70765
-19.206114 25.574955 10.431911
-19.268929 24.934425 11.281054
-18.94392 25.951145 10.221609
-18.371866 22.044096 9.889005
-18.396303 21.75886 10.541703
-18.314335 21.72847 11.331993
-18.403343 22.119896 11.971744
-18.492485 22.909943 8.973799
-18.60984 22.393684 9.4144945
-18.452282 22.634722 12.259582
-18.207525 23.948696 8.164212
-18.641111 23.420986 8.592986
-18.65679 23.584929 12.17719
-18.39458 24.552937 8.189298
-18.748825 24.371958 12.01685
-18.625706 25.289 8.461843
-17.937708 26.600466 8.287128
-18.483438 26.333736 9.490934
-18.572952 26.256117 10.531037
-18.524336 25.905523 10.93694
-17.664747 27.544327 6.746214
-17.800558 27.837463 7.4540367
-17.891537 26.660952 10.468919
-17.61854 28.351082 6.2315083
-17.682663 28.38537 6.5068617
-17.717916 28.565437 7.313129
-17.62887 28.851292 6.637131
-17.643839 28.904846 7.1228714
-17.877943 21.479357 10.938582
-17.286901 21.433065 11.152061
-17.707077 21.866623 10.017512
-17.612133 21.625029 10.702284
-17.6554 21.534092 11.402348
-17.709633 21.759617 11.992181
-17.595583 22.79611 8.949061
-17.291561 22.621754 12.854814
-16.651754 22.815516 13.774603
-17.632767 23.882153 7.921666
-17.535675 24.667572 7.6476393
-16.8587 24.805325 12.555872
-16.876799 25.942142 6.896938
-17.492311 25.753426 7.5926876
-17.374628 25.27328 12.353155
-16.671679 26.428644 6.3422837
-17.553295 26.506372 11.489776
-17.255468 26.198227 11.962792
-17.265575 27.714462 6.001562
-17.508665 27.517921 6.455264
-17.445086 27.613602 9.449067
-17.243298 27.27009 10.297914
-17.226582 26.80107 11.238744
-17.253433 28.50809 5.923812
-17.54536 28.733751 6.287918
-17.125322 28.655987 8.186967
-17.101776 28.239485 9.07518
-16.86185 29.297712 6.006349
-17.245592 29.249971 6.5094047
-17.217056 29.334846 7.4945273
-16.946056 29.25513 8.198131
-16.798456 29.75214 6.7624383
-16.804186 29.74136 7.7098217
-16.806301 21.48767 11.721677
-16.2315 22.210417 10.119853
-16.902235 21.621767 11.220387
-16.120567 21.579975 12.551583
-16.126274 21.805311 13.482347
-16.018318 21.99915 13.966565
-16.54375 22.986374 8.891894
-16.1151 22.551477 14.180768
-16.52715 23.532305 8.465919
-16.581907 23.051094 13.691974
-16.040169 23.287327 14.225192
-16.176937 25.26279 6.7987847
-16.668928 24.459915 7.4899125
-16.495787 24.30857 13.413243
-15.962191 24.05904 13.972212
-16.241024 25.970078 6.143748
-16.619364 25.686453 12.526555
-16.586054 25.242865 12.615332
-16.263052 26.47144 5.8851485
-16.517437 26.383425 12.208654
-16.140491 27.732075 5.3667135
-16.27326 27.23407 10.687243
-16.696869 26.84081 11.6109915
-16.561234 26.79131 11.844865
-16.639433 28.552204 5.5521884
-16.529629 27.996317 9.760725
-16.069101 29.0054 5.3529205
-16.336376 29.251966 5.639529
-16.500513 29.457182 8.381716
-16.248688 29.312176 8.728195
-16.26789 29.69066 6.023476
-16.301304 29.901258 6.5482316
-16.362123 29.928278 7.5017996
-16.45152 29.790745 8.012989
-14.842797 21.32239 10.825204
-15.288325 21.257566 11.564533
-15.729075 21.30484 12.226743
-15.3464985 21.420033 13.492368
-15.329219 21.864513 14.181176
-14.547991 22.593945 2.8265314
-14.549168 22.532383 3.0339327
-14.990192 22.966015 8.600304
-15.357518 22.624601 14.646451
-14.534493 22.894573 2.800067
-15.572192 23.589365 14.408769
-15.520463 23.254873 14.598507
-15.485905 24.12648 14.150204
-15.298033 26.38056 5.6333003
-15.624144 26.283289 12.209361
-15.367971 27.657587 5.3149753
-15.414251 27.112858 11.091744
-15.694942 28.649284 5.267658
-15.642544 28.53764 9.608482
-15.189103 28.202888 9.831737
-15.667872 29.076317 5.3489814
-15.501432 29.495827 5.699115
-15.9239 29.579311 8.597943
-15.427614 29.673687 5.9743276
-15.6269865 29.939434 6.5771704
-15.526616 30.024513 7.429292
-15.454971 29.881496 8.078672
-13.988797 20.94631 10.674378
-14.8091135 21.155401 11.517055
-14.274437 20.98477 12.279968
-14.396898 21.226444 13.3188505
-14.064719 22.036827 2.0473847
-14.171021 21.840834 2.6722796
-14.101605 21.777674 3.1975465
-13.916709 21.912956 4.094639
-13.839795 21.72229 8.839148
-14.730942 21.717249 14.230717
-14.10723 22.531557 1.8955579
-14.485863 22.420414 2.4823303
-14.388241 22.445023 3.4081705
-14.019496 22.352875 4.267764
-13.6646185 22.259062 4.876016
-14.11311 22.840427 7.881073
-14.437217 22.614658 8.61611
-14.685319 22.532972 14.788181
-14.00315 23.29638 2.0104778
-14.412725 23.06786 2.5178738
-14.168693 23.22081 3.5027225
-13.715993 23.036627 4.813363
-14.72143 23.29141 14.756986
-13.853888 23.765167 2.5420923
-14.572101 24.841408 6.748558
-14.34529 24.522177 14.312814
-15.046773 25.563429 12.422265
-14.286147 24.784477 14.134212
-14.558088 26.500841 5.5384393
-13.937986 26.659777 11.113406
-14.804787 25.988234 12.033201
-14.494775 27.4864 5.3122444
-14.336209 27.629196 10.551164
-14.887506 28.760265 5.314478
-14.145979 28.198446 5.6589355
-14.452533 28.241627 10.382909
-13.861321 28.207489 10.7159
-14.900142 29.311699 5.788463
-14.53154 29.559765 6.404425
-14.560149 28.89666 9.329576
-14.702989 29.75219 7.5438066
-15.04174 29.667686 8.377979
-13.347158 21.313965 2.6973383
-13.206612 21.168272 3.4133642
-13.526806 20.862827 9.804541
-13.471505 20.749577 10.505236
-13.402739 20.543377 11.048938
-12.914961 20.770926 12.75876
-13.024678 22.213564 1.4039023
-13.471942 21.873837 1.845772
-13.625272 21.525188 2.3910592
-13.673848 21.46133 3.4542496
-13.44901 21.608215 4.34589
-13.483723 22.240152 7.7044516
-13.351589 21.958267 14.405497
-13.220828 22.597944 1.3522795
-13.627015 22.542192 1.5674871
-13.32095 22.737183 5.775399
-13.447707 22.372799 14.685365
-13.127969 23.229502 1.3166456
-13.390865 23.375887 1.5466516
-13.290233 23.6474 5.2177067
-13.540338 23.811287 14.864659
-13.219325 23.821312 1.7275069
-13.554765 23.900623 2.2488027
-12.985588 24.382536 3.3438585
-12.810161 24.547432 5.2557063
-13.409972 25.324596 5.9487734
-13.22335 24.88958 14.904988
-12.721524 25.559057 16.479967
-12.580441 25.218058 17.130144
-12.962084 26.809885 12.67269
-12.707465 26.140057 16.669067
-12.625987 26.406425 17.005753
-13.567451 27.479168 5.284495
-12.968189 27.371223 12.458336
-13.516969 28.132725 5.559316
-13.494058 28.18114 10.715075
-12.7292385 28.109463 12.275579
-13.557352 28.895239 6.097671
-14.128124 29.412338 6.9366894
-13.873449 29.430847 7.1254725
-13.542609 29.423393 8.699377
-13.565988 29.364357 9.385606
-13.037241 29.510635 10.368018
-12.839037 29.67908 8.875642
-13.022815 29.784609 9.523658
-11.551428 10.003081 15.081353
-11.549347 10.009814 15.507201
-11.537278 10.247298 15.1045685
-11.627953 10.550194 15.65124
-11.5888405 10.568172 16.354776
-11.565818 11.213036 15.955824
-11.604426 10.947595 16.16144
-12.100525 20.10102 10.572013
-12.291086 20.05925 11.479366
-12.218536 21.380398 2.4138927
-12.697251 21.09324 3.6884248
-12.3403225 20.90748 4.5132756
-12.370204 21.173956 5.0486565
-12.0050125 21.38343 7.7013364
-12.622231 21.077553 8.65292
-12.297971 20.726337 9.480263
-12.612501 20.583761 11.812499
-12.449956 20.60465 12.52759
-11.921791 21.01276 13.529261
-12.606822 21.96562 1.5121453
-11.973395 21.431288 5.6866813
-12.545573 21.863886 6.4809437
-12.318483 21.768173 7.350018
-12.6453285 22.052156 14.338118
-12.445179 22.578638 1.0859557
-12.180019 22.687078 14.578955
-12.335271 23.222513 1.0125303
-12.014079 23.719378 16.30836
-12.01933 23.850859 16.913273
-12.630042 24.208399 1.8346002
-12.487492 24.440577 2.2884033
-12.284293 24.55288 17.321922
-11.958472 24.71369 18.176134
-12.1527815 24.568476 2.8058999
-12.278093 24.779634 3.4610507
-12.408556 25.310553 17.644217
-11.980161 25.32185 18.49625
-11.914932 25.860888 19.282034
-12.394505 26.435112 17.599934
-12.129347 26.535976 18.141596
-11.820077 26.470938 19.59525
-11.743858 26.269073 19.981035
-12.408865 27.365435 14.279837
-12.212345 27.062334 15.712739
-12.320269 27.057245 16.451466
-12.211032 27.277134 17.398273
-11.832071 27.14446 18.720623
-11.737718 26.992609 19.436508
-12.422781 28.329168 6.162557
-12.3355465 28.00949 13.781042
-11.988345 28.056719 14.191651
-12.008881 27.736238 15.566554
-11.876278 27.923666 16.4303
-11.794261 28.038853 17.23721
-11.736097 28.828594 21.790186
-11.67396 28.736712 22.295303
-11.575316 28.937874 23.230135
-12.476282 28.903044 6.7508564
-11.984812 29.59627 11.380884
-11.748612 28.781635 12.793122
-11.642002 29.682062 21.627481
-11.725122 29.459282 22.503193
-11.675274 29.402456 22.985231
-12.52142 29.78713 8.663249
-12.2363825 30.285667 9.695778
-12.326831 30.120354 10.348349
-11.655007 30.445763 21.737396
-11.611829 30.32485 22.56596
-11.598342 29.988823 22.972223
-11.517882 30.889591 21.940523
-11.535409 31.119413 21.965576
-10.843727 9.271729 15.0674095
-10.985179 9.262001 15.434588
-10.884445 9.221509 16.17548
-10.873961 9.969178 14.282109
-11.176271 9.76637 14.820514
-11.346738 9.635635 15.551648
-11.268972 9.73731 16.357824
-10.967748 9.837176 16.95388
-10.92402 10.583809 14.326146
-11.289105 10.3808565 14.698552
-11.480362 10.647953 16.658928
-11.179471 10.583146 17.07259
-11.148232 11.234431 14.741546
-11.459584 11.271815 15.614134
-11.434971 11.243109 16.414156
-11.073328 11.255471 17.078238
-10.956573 11.9898615 15.094546
-10.928415 12.161443 15.5646305
-11.098895 11.900985 16.188246
[...]
POINT_DATA 4809
SCALARS features_00 float 1
LOOKUP_TABLE default
0.9025381 0.8718426 0.96168613 0.9262166 0.8845153 0.98555845 0.9049804 0.8207613 0.78963685 0.8883242 0.790566 0.773613 0.7549497 0.72227484 0.7948464 0.8233341 0.6236362 0.76003647 0.857213 0.7893879 0.62861615 0.76875734 0.6714692 0.6730337 0.7027756 0.60304034 0.635917 0.5915052 0.60639787 0.5068135 0.6113631 0.63393927 0.618868 0.6383527 0.553156 0.60794127 0.66305095 0.46145487 0.5426137 0.62782836 0.46493202 0.5300854 0.5045294 0.4389549 0.44752115 0.39353406 0.4166909 0.5877564 0.6078614 0.28860322 0.70640075 0.70145357 0.6858913 0.7389468 0.7258434 0.5319278 0.4132603 0.51494205 0.48453963 0.48189676 0.47102886 0.45474023 0.48626292 0.5183387 0.37820375 0.29910973 0.25002468 0.26235747 0.28091156 0.29288977 0.3772428 0.3214792 0.34053892 0.6536615 0.59510493 0.27595043 0.23808572 0.2894857 0.7382932 0.74186325 0.5735084 0.34180617 0.7952777 0.7843591 0.7312001 0.5848789 0.8114557 0.7017763 0.3174928 0.28112662 0.34635082 0.3278018 0.5513905 0.58848524 0.29054788 0.5643655 0.25377464 0.49687308 0.49413145 0.15592729 0.19534199 0.31021294 0.36071452 0.30533326 0.32448262 0.28985882 0.43537104 0.32892805 0.67572284 0.19363424 0.2909573 0.2977622 0.7551407 0.1960235 0.74090075 0.77867496 0.53206396 0.43920973 0.794176 0.81410396 0.7234181 0.6280985 0.115867496 0.15751263 0.2305083 0.5090905 0.60997236 0.82759476 0.79137284 0.0020171404 0.577738 0.8384986 0.4501106 0.50212985 0.34865502 0.43303 0.27708334 0.5749862 0.121144794 0.6730044 0.17984019 0.101658486 0.7012415 0.707145 0.4717958 0.70973074 0.75880456 0.6808227 0.5504116 0.12077376 0.14596334 0.18317308 0.4014129 0.877417 0.8080731 0.73779213 0.62629783 0.14226358 0.59203994 0.89880687 0.86126786 0.72623444 0.61133313 0.53132033 0.030888297 0.025708385 0.5822656 0.88736415 0.8764397 0.70050186 0.5310112 0.4911672 0.8247991 0.15253282 0.29743236 0.24141511 0.23208557 0.40790498 -0.11691375 0.16611919 0.5095197 -0.022948507 0.59553206 0.49916428 0.041561984 0.0011413395 0.62581044 0.59842587 0.18994296 0.54090244 0.4328674 0.7596384 0.637596 0.15353772 0.13339953 0.14817001 0.23380776 0.82350135 0.8544668 0.82000417 0.6781752 0.5515716 0.035112005 0.35749343 0.84388816 0.8774172 0.4391693 0.43943715 0.8269268 0.8427681 0.4872315 0.39522752 0.7926486 0.79887867 0.58113676 0.22221513 -0.13770637 0.10235326 0.35136998 0.40200895 0.017216228 0.35922915 0.36122513 0.39441615 0.040033273 0.41043591 0.0050203055 0.071745664 0.4266842 0.4981073 0.40892628 0.23887102 0.2320051 0.2387562 0.2880497 0.27937055 0.8799547 0.89040816 0.869346 0.8586295 0.8698084 0.7976109 0.8301872 0.18854487 0.25522774 0.67227113 0.5565109 0.37726066 0.29434228 -0.04290141 0.08272739 0.09546441 0.22456059 0.26977584 0.2044602 0.77202916 0.123899564 0.03340788 -0.07794182 0.14446162 0.77996683 -0.0834866 0.78654087 0.23873141 0.30913278 0.69000804 0.6258054 0.4356932 0.35604388 0.55288446 0.4556121 0.38367626 0.3197348 0.28884754 0.35349983 0.32876846 0.2590048 0.26096568 0.07329762 0.26043785 0.33206618 0.34233132 0.27340817 0.23680979 0.16880372 0.094146475 0.078609616 0.2147932 0.29714903 0.3325457 0.4667651 0.49404144 0.5201592 0.18487802 0.15080555 0.11056839 0.51882166 0.5251205 0.53088754 0.29524267 0.30940324 0.2433919 0.5703364 0.5589463 0.5469916 0.5982487 0.6092509 0.8915286 0.9190413 0.9812368 0.8402419 0.87734485 0.9094945 0.94808674 0.9490648 0.83078456 0.852425 0.87015975 0.884478 0.8073661 0.7878665 0.7931172 0.80810523 0.71863484 0.66982317 0.695413 0.29388717 0.3571403 0.38518453 0.36715811 0.15256122 0.25540742 0.3317724 0.37109143 0.324404 0.435854 0.04331477 -0.008287318 -0.013448574 0.056835532 0.2977157 0.6880193 0.06105536 0.7399414 0.07839325 0.20653853 0.2663587 0.24026738 0.69360226 0.6545932 0.49950558 0.29438928 0.23827265 0.24164234 0.78672755 0.78319514 0.7572682 0.58347535 0.27968496 0.82534397 0.83384615 0.7781305 0.7337143 -0.32708862 0.23058732 0.2395158 0.64757454 0.75831544 0.80651283 0.77876306 0.72139657 -0.21863222 0.2136029 0.21411033 0.41420728 0.4428009 0.6716466 0.7011962 0.667783 0.17502965 0.268515 0.30045885 0.32543254 0.20617852 0.31877726 0.4937988 0.5059254 0.4929924 0.11372569 0.1776816 0.12720346 0.056677204 0.069175154 0.04828429 0.50291026 0.5291686 0.52003527 0.2821331 0.17007229 0.58492047 0.58004856 0.6032996 0.5699911 0.54559946 0.53112096 0.24692562 0.6391208 0.63764185 0.607664 0.5768508 0.6540337 0.6560831 0.6470797 0.62101007 0.8699286 0.9454815 0.98006696 0.9048587 0.8115582 0.84323245 0.86550045 0.79385835 0.8257637 0.7400701 0.75837183 0.7411885 0.68307203 0.65395224 0.6532248 0.59365165 0.5978953 0.5866365 0.575875 0.49164882 0.49923202 0.4834378 0.4648416 0.46590728 0.36619163 0.30305475 0.388205 0.40542907 0.3757719 0.35328823 0.34748003 0.11668928 0.3155723 0.2616469 0.134601 -0.20662028 -0.24281359 -0.12576649 0.03978818 0.17891315 0.3069562 0.39846706 0.08640727 0.65861 -0.37280032 0.16713925 0.09163956 0.12455429 0.22719654 0.6511765 0.05691362 0.15279403 0.2000773 0.23991406 0.24885945 0.27324522 0.73131156 0.7112216 0.70351267 0.56797886 0.25521457 0.7669306 0.75377345 0.73234236 0.6907674 0.22272915 0.22625813 0.7438797 0.78142405 0.6901994 0.41834205 -0.387292 0.23260297 0.2411493 0.60589737 0.6544348 0.43906477 0.3658067 -0.4675115 0.3379809 0.41161218 0.48359525 0.54026395 0.48465365 0.44576508 0.4221614 0.34117454 0.19987792 -0.02972076 0.4546284 0.40783587 0.43077397 0.52241325 0.5441965 0.4928077 0.44561738 0.39626548 0.0769245 0.11304659 -0.06843859 0.11820188 0.20541796 0.09240759 0.13952112 0.46710056 0.4079748 0.44997942 0.4830932 0.41521376 0.17356625 -0.044184588 0.5134826 0.5045029 0.53196585 0.654941 0.59041464 0.4967665 0.39566523 0.5916533 0.6327828 0.5227551 0.6860791 0.6489846 0.56001866 0.4182672 0.36892247 0.632259 0.6459483 0.6362227 0.5790464 0.61968446 0.651325 0.6370021 0.56108284 0.46459404 0.59980494 0.6017747 0.58800304 0.52350897 0.42566803 0.8423438 0.9102061 0.8725368 0.80411303 0.73091197 0.7732315 0.7444984 0.65918523 0.704659 0.68777657 0.70136285 0.65515053 0.6158954 0.55497324 0.6094419 0.47436482 0.4541332 0.48792744 0.57305694 0.35765386 0.42875662 0.551975 0.4428471 0.50643224 0.53274 0.4392714 0.378027 0.36634788 0.32217556 0.4434514 0.48982328 0.5024075 0.3795846 0.3266456 0.3339132 0.32002324 0.5964104 0.37300664 0.31678218 0.24748686 0.06263937 0.26463372 -0.14699881 0.6700511 0.5434358 -0.016628854 -0.2692466 -0.078374445 -0.015598923 -0.003129499 0.087096006 0.11163624 0.6455485 0.5400232 0.43903744 -0.1345886 -0.016845144 0.15478788 0.56731224 0.12218322 -0.34079742 0.19525068 0.2593565 0.28036392 0.4407965 0.2849858 0.2841483 0.6939057 0.6544281 0.60604703 0.27453375 0.6979806 0.6608487 0.6404928 0.24771968 0.5825485 0.5876859 0.5852393 0.43304294 0.37912515 0.22913347 0.23350939 0.45372778 0.5533328 0.28354862 0.40111357 0.44823152 0.8018191 0.74926543 0.32873315 0.24612162 0.38761517 0.3511169 0.79930246 0.721373 0.61228657 0.54623413 0.4640277 0.319384 -0.0010783821 -0.041991666 0.3834581 0.40410697 0.44533125 0.42008746 0.7723226 0.70808566 0.60177183 0.56286585 0.5376682 -0.38708898 -0.068356186 -0.11688168 0.24741286 0.3707525 0.40963405 0.4639579 0.53105223 0.47439983 0.61609846 0.5749506 0.46124005 0.18070175 -0.0037934966 0.06258658 0.47841075 0.47435492 0.4595719 0.29848325 0.48550123 0.5639426 0.56265724 0.5099457 0.5502777 0.33156273 0.5550132 0.5813497 0.48526704 0.5657851 0.34510523 0.29110295 0.50721085 0.52967215 0.46074748 0.57838464 0.58017856 0.55678195 0.4659366 0.39815116 0.2076279 0.5619906 0.5198487 0.3196445 0.35419717 0.43938556 0.8004867 0.7384329 0.6960371 0.71184057 0.63615954 0.65522504 0.64679754 0.5904241 0.580988 0.5830682 0.45663363 0.574118 0.34530884 0.52413034 0.23819327 0.38406664 0.41716075 0.42253435 0.07894619 0.3842916 0.37674814 0.4427058 0.5020869 0.5472732 0.068366185 0.31063333 0.43400487 0.45494282 0.3464386 0.1655012 0.25900137 0.32799238 0.2690696 -0.09096864 0.11985744 0.50186926 0.41605657 0.34377015 0.3334312 0.22291842 0.1957326 -0.020122461 0.058241256 0.0998618 0.18195422 0.21587625 0.21476546 0.7209032 0.6194745 0.40716463 -0.16711894 -0.02145154 0.17185941 0.2374843 0.22986132 0.6564571 0.68323696 0.69521147 0.7492383 0.72898126 -0.43976402 -0.171318 -0.06975843 0.009176824 0.18784781 0.72469103 0.7700635 0.7846325 0.7712215 0.76614463 0.69995606 0.68261546 0.16493139 0.22018217 0.79872954 0.8347647 0.8680215 0.85902727 0.62504494 0.26361385 0.26232383 0.27107924 0.85101 0.87809753 0.5131188 0.2812311 0.49181792 0.45365933 0.40323693 0.19219127 0.28655586 0.41460708 0.5771691 0.48569292 0.050985113 0.22776908 0.38330466 0.36661175 0.7556997 0.6888286 0.19402343 0.39402884 0.31197405 0.830148 -0.3746594 0.15437758 0.37622052 0.30058575 0.8435974 0.2767368 -0.097382866 -0.14810038 -0.2705342 -0.038052276 0.08771357 0.07703672 0.16383691 0.388367 0.36446363 0.81740576 0.7545756 0.49056667 0.030187529 0.13053893 0.14282985 0.13675861 0.3798133 0.4177931 0.71168786 0.6185473 0.5741224 0.541144 0.11743577 0.09595352 0.25039595 0.2801991 0.2537722 0.08218256 0.05649662 0.4976973 0.4696138 0.41050953 0.37039354 0.48593798 0.1577021 0.17518097 0.13984634 0.41594452 0.46585935 0.39746535 0.37335372 0.14595732 0.48340333 0.5158587 0.38181597 0.4791175 0.14041045 0.19265105 0.43616146 0.4289738 0.4423864 0.34275237 0.29314974 0.36912835 0.20826903 0.27024052 0.36991814 0.5282212 0.40766075 0.24711594 0.16480485 0.19717687 0.43074602 0.423442 0.37941363 0.26127616 0.35685036 0.45801657 0.5030632 0.48487478 0.43150043 0.23547235 0.27960086 0.42549816 0.42882597 0.4353597 0.3825311 0.3141173 0.2963469 0.43160495 0.5411236 0.5752692 0.418541 0.42479038 0.43239176 0.4066769 0.32753572 0.3585323 0.61373985 0.613148 0.4043442 0.4182927 0.37854123 0.3747089 0.46711046 0.5849888 0.66319287 0.65564585 0.4855935 0.5409938 0.64387256 0.6896585 0.6722155 0.57773197 0.6512097 0.6815682 0.54565436 0.488732 0.57232153 0.5359192 0.55100435 0.4370725 0.50034434 0.39532328 0.50380546 0.24698035 0.52767825 0.1735342 0.50247645 0.08582473 0.1059737 0.022150725 0.30450702 0.4464476 0.45961195 0.4429689 0.4562689 0.18836491 0.13279842 -0.015952244 -0.0058143437 -0.1010498 0.21197227 0.3462369 0.38018462 0.3332792 0.3228553 0.071748465 0.11397805 -0.051296934 0.022299714 0.24430472 0.30495217 0.3288465 0.548224 0.32831532 0.29415122 0.021948494 0.1680688 0.18006578 0.20367076 0.27993554 0.4907425 0.4880684 0.5639562 0.5882697 0.7269515 0.68263966 0.14864235 0.56209826 0.59354997 0.64258105 0.6453772 0.74280894 -0.41001266 0.13771836 0.6836996 0.7339033 0.7117503 0.18104167 0.727216 0.8315397 0.6365956 0.56654584 0.2550184 0.75192237 0.7789182 0.8759898 0.46939725 0.2668693 0.77408254 0.34331828 0.33478546 0.37424543 0.33031496 0.3922525 0.20301525 -0.1641068 0.23400916 0.17497131 0.311261 0.32637212 0.642293 0.066450804 0.33992356 0.31450808 0.2915256 0.71045566 0.042111874 0.030508846 0.21686295 0.82681805 0.04290192 0.22077854 0.319938 0.33556873 0.35702747 0.23263688 0.86105114 -0.10493174 0.24721818 0.27661523 0.31348264 0.26098746 0.8423034 0.3473332 -0.47820488 -0.48206988 0.006360945 0.069441825 0.1416912 0.18147188 0.09597455 0.2054787 0.7732334 0.5786586 0.54975605 0.4995904 0.11529268 0.21665555 0.07213688 0.055793986 0.34185758 0.16566624 0.14807902 0.14491431 0.27379107 0.2947027 0.22124948 0.06212304 0.14327466 0.34148014 0.23693025 0.19601452 0.17314765 0.25425246 0.3640343 0.36405197 0.09949974 0.11472006 0.099789925 0.236637 0.24326752 0.22031802 0.39988422 0.42883912 0.44436693 0.28065848 0.13361862 0.13362849 0.26774102 0.34504434 0.29534826 0.39658117 0.5444362 0.13343324 0.17416815 0.3110688 0.36701864 0.36150712 0.37047476 0.4065765 0.58377886 0.34861413 0.36837304 0.64081305 0.6183027 0.33368036 0.3998316 0.68219364 0.6623448 0.4125579 0.5311697 0.6148867 0.67002755 0.663432 0.4367187 0.253011 0.3279183 0.38549572 0.45874333 0.40021253 0.4511699 0.45074418 0.40450406 0.37436736 0.4142937 0.8001356 0.8281032 0.15426648 0.7910906 0.83195007 0.83277416 0.8196188 0.29088736 0.18151805 0.7019044 0.7299994 0.7655376 0.7652042 0.14610189 0.34380898 0.27555496 0.19365251 0.111691356 0.049500667 0.06579274 0.291777 0.3481651 0.37672716 0.38060322 0.51364124 0.6342331 0.6506634 0.69391173 0.37098157 0.31934723 0.14289837 -0.14733317 -0.33952588 0.3758146 0.3969431 0.39421365 0.36511585 0.40122682 0.09135556 -0.07963177 -0.114518374 -0.13690318 0.34344763 0.3725352 0.41454062 0.36335886 0.4287332 0.57111025 0.5262942 0.4181118 0.31721506 0.23140118 0.40249467 0.4486127 0.4755687 0.4658058 0.5205305 0.65296984 0.62009805 0.13676396 0.16722265 0.48217678 0.5282106 0.6630602 0.45768872 0.71007633 0.6269014 0.62322867 0.6814456 0.5213365 0.5083618 0.2454675 0.6471695 0.71674263 0.7992059 0.86125994 0.2509638 0.28065178 0.40777194 0.22834274 0.65696764 0.24537717 0.26527965 0.38473427 0.50645435 0.26368272 0.5277051 0.14604592 0.1681044 0.24949229 0.45454696 0.52510333 -0.09022896 0.28096244 0.42291492 0.6856623 0.5986144 -0.078493744 0.0054295957 0.17763053 0.39243752 0.29806724 0.7631395 0.40653455 0.76587117 0.25091237 0.18045564 0.7249553 0.64467156 0.08016852 -0.38408914 -0.27732804 -0.051295385 0.20600456 -0.43788987 0.205416 0.65282154 0.3913955 -0.19190203 0.11800011 0.03851915 -0.03070042 -0.099897794 -0.33992383 0.2465964 0.13821995 0.07752299 0.16898508 0.193228 0.091884196 0.079706974 0.1288928 0.13707559 0.041920204 0.0017468482 0.14225161 0.089349374 0.037403025 0.2609104 0.19741644 0.23820099 0.35890332 0.19004962 0.32278162 0.32250988 0.36678034 0.3501884 0.12489407 0.26862338 0.37035656 0.34104487 0.3172949 0.49315614 0.3959986 0.32817316 0.2504603 0.2788427 0.31810623 0.33406508 0.2945014 0.5938132 0.5935242 0.44685495 0.4107746 0.37015155 0.15445527 0.23151633 0.6050929 0.4349109 0.61261916 0.6357188 0.1924715 0.17497475 0.22631001 0.3019486 0.42082733 0.37768793 0.26824746 0.3414032 0.67284304 0.7196052 -0.11960396 0.6843951 0.7334422 0.7790613 0.8035358 0.7800212 0.30772305 0.28207392 0.3104595 -0.27248695 -0.28942296 0.69572216 0.8026799 0.77579033 0.31353003 0.3357302 0.2794628 0.20558178 0.032715518 0.23419094 0.31874502 0.73112124 0.7385235 0.10206123 0.17271586 -0.14017968 -0.32992762 -0.11464271 0.25732383 0.33641768 0.35306555 0.42887035 0.5936875 0.3438903 0.2796838 0.1068072 -0.01508181 0.358079 0.31985813 0.10953943 0.34939688 0.4067707 0.3970337 0.30818766 0.34312743 0.26842973 0.12924853 0.45555726 0.41274846 0.24313462 0.22178043 0.290027 0.34035987 0.5945825 0.5399185 0.4178261 0.10611317 0.1273089 0.12654848 0.24637704 0.600659 0.5510227 0.049135927 0.5451569 0.5076145 0.35628918 0.42016757 0.57343674 0.4992036 0.15029746 0.16518718 0.34355193 0.39691037 0.3615739 0.25969905 0.06305276 0.56135404 0.6051264 -0.068807095 0.5689386 0.5915753 0.09281885 -0.18926755 -0.12876262 0.55845517 -0.58357376 -0.12237127 0.02894868 0.44913042 0.50594264 0.3228364 -0.105038516 0.34789345 0.18779084 0.37822795 0.4198013 0.0018281415 0.61910486 0.486428 0.34963694 0.10247297 0.6486807 0.4949283 0.49261963 0.15204604 0.08287002 0.017513808 -0.18896167 0.32800093 0.17962955 0.048403956 0.042344645 0.1110627 0.06596174 0.065334946 0.11932884 0.18337417 0.20546177 0.15672554 0.20173877 0.25853086 0.22020033 0.24149665 0.14410196 0.06764698 0.056402925 0.24469647 0.2594195 0.15590623 0.22891188 0.317245 0.097925626 0.2602641 0.28696692 0.102714434 0.13498613 0.3497514 0.4146294 0.29455078 0.2872601 0.17884238 0.32465875 0.47132063 0.46819755 0.44069922 0.4034719 0.37803194 0.31948966 0.013997976 0.48826718 0.47266775 0.44940457 0.4466195 0.4408792 0.23884666 0.49863312 0.33928707 0.17480874 0.18022504 0.41603374 0.4154159 0.28309888 0.20911379 0.17622326 0.17653748 0.17992708 -0.015588582 0.102503404 0.6204434 0.69563687 0.263803 -0.0026126504 0.052906282 0.5374255 0.59148836 0.7248603 0.76292664 0.74574536 0.30576944 0.29377317 0.23725244 0.16510221 0.032905925 -0.16159174 -0.05043723 0.12666148 0.17248161 0.2632764 0.71445495 0.25562927 -0.08992056 0.24494323 0.13348012 0.17682922 0.20295152 0.6889775 0.22444789 -0.097187385 0.12740284 0.15218554 0.22602178 0.21838807 0.0016662031 0.10799787 0.3895607 0.3796156 0.30522478 0.22613724 0.21850207 -0.1764349 0.029331367 -0.17450762 0.06256709 0.3542673 0.31052774 0.012083478 -0.06747642 0.2973851 0.22968727 0.05247511 -0.100327566 0.09243802 0.444807 0.37212443 0.059185717 -0.08041838 -0.072359525 -0.037978843 -0.03308261 0.147982 0.09246631 0.093149245 0.33468854 -0.29951066 0.01932327 0.021148313 0.36622384 0.2559869 0.024131346 0.14666195 0.15836823 0.2764515 0.5808799 0.2757622 0.1542228 -0.04181966 -0.4721956 0.016021913 0.048897102 0.06735262 0.050312392 0.09648775 0.6499617 -0.008606663 -0.30907428 -0.18635002 -0.12155468 0.07067211 -0.038590975 -0.15908827 0.66244733 0.18527457 0.18889529 -0.18563366 -0.07841836 0.04924096 0.062580645 -0.20302299 -0.15589213 0.6293603 -0.53359616 -0.419025 -0.35658896 -0.13955462 0.01274569 0.5662277 -0.40468296 -0.40599686 0.30814767 0.4259848 -0.068776265 0.36603123 0.009287931 0.13363495 0.27510118 0.16660038 0.3430629 0.37509045 -0.33819634 0.17533448 0.3848226 -0.02790784 0.25473425 -0.042213775 -0.054860406 0.08962064 0.20157726 0.14577127 0.0871623 0.057573196 0.18463105 0.25832492 0.2540455 0.093150705 0.13717003 0.1662645 0.037986197 0.07872267 0.14738727 0.14096788 0.08331858 0.20407525 0.0069628134 0.13036859 0.3009348 0.25305444 0.4227292 0.3647473 0.26613325 0.025757771 0.48487756 0.4657948 0.47091973 0.48042744 0.4801207 0.4402792 0.0842146 0.09753256 0.1337559 0.48899147 0.4931723 0.13513644 0.18350087 0.23669127 0.35852617 0.3416675 0.23477215 0.31131124 0.34225583 0.4741946 0.49861562 0.75508106 0.8443058 0.87301135 0.7412846 0.86073804 0.8944564 0.658394 0.8757144 0.90762174 0.40671933 0.47265017 0.47940636 0.11271438 0.2524155 0.3680218 0.4508638 0.43839523 0.40550327 0.011402011 0.07593487 0.2261667 0.3110184 0.40338993 0.40555108 0.39546332 0.11507682 0.0915099 0.12139985 0.13252722 0.25371113 0.33027825 0.5821387 0.21046633 0.05213908 0.06508639 -0.015444092 -0.11245823 -0.0890383 0.03860243 0.30649173 0.47544724 0.5083614 0.65273947 0.6714049 0.698588 0.21122375 0.2128347 0.046621792 -0.08416583 0.04057707 0.094627015 0.17547727 0.6221019 0.20577644 -0.28778905 0.5957719 0.13197133 0.2772858 0.11976822 0.2539932 0.22155678 0.2521977 0.3517464 0.23823309 -0.01829867 0.18192255 0.34264302 0.17864096 -0.11929311 0.19565615 0.2837811 0.3654897 0.21949327 0.143245 -0.09023936 0.18867946 0.2840676 0.23503429 0.18739343 -0.073394015 0.12657987 -0.29337516 0.053224877 0.46813127 0.59111536 0.27905414 0.2940535 -0.10405673 0.6847438 0.30067614 -0.32296187 0.7195316 0.2731421 -0.3319034 0.6877022 0.20749022 0.5822437 0.6451967 -0.016717277 -0.025482347 0.19762251 0.26362684 0.18433315 0.332699 0.36738992 -0.08331418 0.14686045 0.34566805 0.27434987 -0.097724944 -0.17043729 -0.09093586 0.07142114 0.1555607 0.09150113 -0.013355993 0.14324531 0.20911281 0.04544928 -0.16955593 0.19881189 0.17191078 0.16435379 0.05259012 0.21466729 -0.054920524 0.117848784 0.13908766 0.07093736 0.23883605 0.22581229 -0.06055589 0.04148367 0.26582158 0.4318193 0.42797232 0.46687353 0.48809576 0.46271616 0.1077916 0.45005932 0.4842304 0.4935177 0.11492747 0.1548657 0.4836783 0.16720976 0.51893944 0.12390553 0.1349039 0.11843421 0.30683616 0.40178615 0.43491888 0.64190614 0.7714213 0.82658964 0.85037243 0.59458303 0.71053874 0.8427391 0.8779005 0.8816365 0.47126472 0.5760957 0.65331686 0.9056338 0.9054156 0.49031135 0.681416 0.91086316 0.91318595 0.5466244 0.61888933 0.85008013 0.86376214 0.87879 0.4338226 0.4053781 0.7752924 0.21835135 0.39495414 0.45812795 0.35792875 0.05586777 0.10416337 0.3604903 0.26791924 0.2743126 0.13258664 0.1314506 0.10613759 -0.011903204 0.013759159 0.043009333 0.05236063 0.30475202 0.2680968 0.41364324 0.24809572 0.18411925 -0.03601619 -0.09638707 -0.029237948 0.45739424 0.4165464 0.24786462 0.15662356 0.042183153 0.03646715 0.33076602 0.43796664 0.36020276