# vtk DataFile Version 2.0
Really cool data
ASCII
DATASET POLYDATA
POINTS 4751 float
-5.6658645 27.991217 38.2213
-5.7466288 27.820843 38.733715
-5.7315826 27.770224 39.288605
-5.690768 28.282383 38.07335
-5.844508 28.496407 38.643406
-5.8397584 28.34182 39.573463
-5.6649985 28.571096 40.34648
-5.5721946 29.026539 41.468796
-6.010944 28.906351 42.969204
-5.9191236 28.697853 43.481903
-5.745475 28.813828 44.356796
-5.653095 28.905216 38.09132
-5.6758575 29.223476 38.709763
-5.8038044 29.271547 39.197807
-5.6780453 29.364681 40.126793
-5.6825523 29.186317 41.019356
-6.0262704 29.502485 42.96401
-6.0150843 29.536392 43.650993
-5.8839755 29.452278 44.165684
-5.743999 30.090834 42.855705
-5.7521954 30.268017 43.435333
-5.7925863 30.227741 43.970123
-5.112118 27.218124 38.160892
-5.0729856 27.007483 38.67089
-5.073713 26.889856 39.3513
-4.8096695 27.25861 43.83257
-4.8029222 27.246422 44.46673
-4.856149 27.312153 44.88978
-4.7223763 27.874641 37.323925
-5.2685943 27.795431 37.903965
-5.468663 27.56609 38.45991
-5.131962 27.553192 40.401478
-5.0437746 27.443178 40.981224
-5.5699143 27.99424 43.69217
-5.1090674 27.605284 44.49022
-4.8655 27.722712 45.23112
-4.8590713 28.15358 37.268803
-5.411435 28.511374 37.786068
-5.449331 28.601236 41.53897
-5.5019836 28.30518 44.68818
-5.044582 28.282642 45.305096
-4.7211757 29.089138 37.24972
-5.3372173 29.034746 37.868404
-5.4733543 29.560217 38.798317
-5.5597835 29.43947 44.684174
-5.196164 29.287401 45.139515
-5.1599126 30.035307 38.6466
-5.0989213 30.635115 39.585857
-5.2829547 30.455427 40.220108
-5.410605 30.465897 42.502117
-5.432433 30.56322 43.871586
-5.411937 30.307543 44.489227
-4.906897 30.47441 44.98489
-4.9189625 30.900366 39.475792
-4.7005324 31.394852 41.637955
-5.163976 30.979544 42.50274
-5.1208906 30.93449 43.543407
-5.105973 30.727007 44.43993
-4.2474318 26.457617 38.95786
-4.337193 26.414764 39.457058
-4.4458017 27.143055 37.798717
-4.366454 26.55052 39.47177
-4.220447 26.643871 40.25389
-4.1771483 27.214342 42.60826
-4.631477 27.181797 43.958946
-4.45759 27.112356 44.465843
-4.358869 27.272236 45.123802
-4.117373 27.813292 36.9364
-4.341764 27.345917 37.573627
-4.464119 27.507488 45.387867
-4.27699 27.808088 45.644073
-4.1800904 28.319994 36.71764
-4.433244 28.419127 45.689976
-4.3790617 29.270525 37.070133
-4.637958 29.447197 37.401054
-4.7315383 29.60524 45.43382
-4.361007 29.2166 45.595802
-4.4301925 30.355145 45.223995
-3.9949236 30.90858 38.115192
-4.6212335 31.330637 39.79129
-4.6057487 31.36142 43.61423
-4.543411 31.088518 44.46137
-4.425853 30.755407 44.945232
-4.1821413 31.582298 39.998695
-4.214593 31.732481 41.697247
-4.2040014 31.707554 42.293663
-3.7735353 26.391726 39.149628
-3.7679365 27.303612 37.083138
-3.2946925 26.973425 37.508083
-3.011243 26.640497 38.19388
-3.4729745 26.649883 40.4973
-3.1022737 27.113638 41.70271
-3.9372165 27.026031 43.90199
-3.6201503 27.061687 44.44587
-3.8090413 27.217138 45.135227
-3.3102703 27.908405 36.341614
-3.343334 27.603994 36.65262
-3.6176333 27.523615 45.3877
-3.8408415 27.923508 45.6768
-2.982535 28.607452 36.08099
-3.3254123 28.795313 45.510258
-3.5796921 28.467285 45.67776
-2.8883977 29.569544 35.933598
-3.6559238 29.059765 36.42915
-3.6032276 29.864756 45.460533
-2.952779 30.589758 36.06401
-3.7500484 30.314959 45.286156
-2.735653 31.249912 35.635414
-2.9583497 31.910542 36.565838
-3.3695145 31.295755 44.339188
-3.5960526 30.906437 44.86394
-2.9903688 32.760677 36.6073
-3.1913648 32.742214 37.170517
-3.2494252 32.907665 38.15046
-3.6520824 31.707214 40.415833
-3.0211673 31.826324 41.934498
-3.2557368 31.756374 43.03309
-2.7668152 33.384254 36.170208
-2.9989166 33.470356 36.588837
-3.1165957 33.696648 37.412888
-3.1132085 33.432945 38.45915
-2.8116777 33.446533 38.913635
-2.796021 34.090252 36.731598
-2.8799493 34.265766 37.51342
-2.7746902 33.913525 38.69074
-2.4722962 26.612898 37.49169
-2.245105 27.348606 42.828278
-2.7283206 27.293747 43.941742
-2.3607516 27.874859 36.062656
-3.0733933 27.67974 45.067245
-2.4193182 28.633444 35.823605
-2.8274295 28.611483 45.317432
-2.3884778 29.416243 35.566204
-2.06986 30.457848 35.218483
-2.5599473 30.908875 35.521515
-2.667874 30.248377 45.12501
-2.2132452 31.148996 35.198196
-2.406928 31.720936 35.433
-2.3533325 31.327364 44.53367
-2.114542 32.247215 35.353905
-2.8978512 31.761635 42.55876
-2.5793674 31.810125 43.482704
-2.1935034 31.60497 44.0826
-2.266892 33.50741 35.791412
-2.3121855 34.054962 36.09874
-2.4060757 34.310852 36.500633
-2.4886153 34.599712 37.736813
-2.5290847 34.28207 38.550896
-2.1244738 34.12897 39.04709
-2.205059 34.74685 36.868107
-2.069407 34.908295 37.39817
-2.1766677 34.808792 38.10635
-0.96917105 26.118895 36.06259
-1.3550504 26.139038 36.623573
-1.3049624 25.690306 37.69202
-0.90612453 25.652847 38.22854
-0.59945476 27.008718 32.349392
-0.7218516 26.824108 33.30045
-0.90559256 26.551815 34.48559
-0.5953128 27.717455 31.87992
-0.68782103 27.575047 32.619637
-0.81039786 27.657522 33.346134
-1.6001594 27.351929 35.96438
-0.5855099 28.098253 32.03368
-0.6185372 28.064545 32.57431
-2.1776145 28.410685 44.760406
-1.7237762 29.985434 35.194168
-1.7635064 30.495205 35.10568
-1.4183183 30.475317 44.857647
-1.4614513 31.70931 35.097954
-1.7407924 31.402872 44.42481
-1.899371 30.99122 44.77407
-1.504557 31.76813 42.52434
-1.5908043 33.856056 35.65175
-1.6751857 34.5639 36.304585
-1.6079555 34.79125 36.643673
-1.4042872 35.11969 37.608753
-1.5053854 34.997314 38.34837
0.18180989 24.237617 36.383213
-0.48717076 25.201862 35.81176
-0.53804857 24.931902 36.866432
-0.52615476 25.061296 37.6795
-0.2298931 25.13889 38.23221
0.37188414 25.196705 42.28071
0.014546156 26.001257 32.88846
-0.52445394 26.195004 33.587315
-0.48527905 25.637081 35.38889
0.007161528 25.524786 38.6127
0.07622972 25.527315 41.84167
0.11739877 25.804726 42.62051
-0.15769815 26.280338 43.01938
0.16584456 27.03073 31.27199
-0.1751127 26.91299 31.73767
-0.3715911 26.59537 32.556805
0.1632669 26.529018 44.05139
0.021925718 27.596113 31.173391
-0.39697018 27.613943 31.574644
0.074796304 28.152832 31.150759
-0.311751 28.257442 31.70297
-0.7372063 28.470186 44.039955
-0.100317866 28.896858 32.491615
-1.0810826 29.925665 44.810627
-0.055300802 30.82539 33.891674
-1.1472276 30.518274 44.85349
-0.1527724 30.967464 34.08116
-1.009394 31.57126 44.06209
-0.46152768 32.67473 34.914402
-0.369945 31.929562 42.651318
-0.11770734 33.322628 34.802166
-0.51095814 33.562958 40.75959
-0.12815371 33.701317 42.196705
-0.35928112 34.313034 35.57144
-0.13245267 34.541973 40.693203
0.11988303 34.338966 42.314808
-0.46488893 34.59492 36.15687
-0.6961048 34.914944 36.704674
-0.61963785 34.93438 38.468292
-0.9161498 34.691364 38.996674
0.24022628 35.125965 40.796585
0.239817 35.094448 41.774097
0.36729264 35.166504 41.952763
1.3104955 22.318903 36.00755
1.3237567 22.283892 36.588028
1.3525804 22.747498 35.072887
1.1048489 22.755959 35.59206
1.0873436 22.620806 36.344837
1.3018824 22.320438 37.416016
1.421539 22.744698 38.325172
1.0449035 23.269796 35.105526
0.9057822 23.31285 35.783188
1.0772816 23.217327 36.95215
1.0629184 23.866379 38.049915
0.7246735 25.238457 33.55531
0.7497717 25.11867 38.650574
1.2372364 24.772757 39.311935
1.0237713 24.663002 40.703697
0.6506501 24.75915 41.774857
0.95352757 26.016273 31.844149
0.9125384 25.578156 32.89693
0.47403574 25.689173 43.409035
0.9345732 25.919096 44.120235
0.7761735 27.00766 30.902283
0.64150345 26.41599 31.539219
0.6507394 26.434515 44.272366
0.9735222 27.482607 30.656794
0.52929455 27.453646 44.477596
1.0287133 27.322529 44.646343
0.70259476 28.30861 30.857962
0.982767 28.686035 44.512108
0.75848275 28.740452 31.090096
0.45040005 29.12119 31.873812
0.45039028 29.304268 32.435944
0.7846976 30.38646 44.114872
0.8167076 30.945461 33.14579
0.49030352 31.605495 33.66779
0.87510127 32.162975 33.643406
0.40421352 33.356323 34.66926
0.6086743 34.631035 42.736523
0.8056861 34.90734 39.517147
0.4486645 35.315075 40.55728
0.71828496 35.233604 42.28339
0.99208933 35.106823 42.703976
1.0181373 35.871128 40.992733
0.9233318 35.790028 41.533974
0.84565914 35.737087 41.87191
1.999944 22.18677 34.93812
1.7245721 22.100471 35.55753
1.7807728 21.872263 36.605854
1.8162508 21.711977 37.60043
1.7421434 21.915924 38.308567
2.0886183 21.830074 38.8657
2.2136254 22.877232 33.956936
1.5353814 22.650297 34.958374
1.4532065 22.727736 38.807495
1.8389277 22.79118 39.474598
2.1863291 22.82645 40.06946
2.0036926 23.391075 34.156425
1.498857 23.36553 39.336155
1.5813122 24.107685 40.529484
1.4112904 24.090837 41.55416
1.652307 24.201239 42.383175
1.417762 24.839836 33.590805
1.2723799 24.43669 42.45137
1.7005498 24.750412 43.229824
1.2775968 25.258566 43.67398
1.8275764 25.937492 31.164635
1.6083822 25.81773 31.482368
1.6087649 25.746338 44.096325
1.8635217 27.043875 30.376055
1.3779262 26.788322 30.757881
1.6462747 26.361807 44.50281
1.45865 26.60549 44.593826
1.7680651 27.587511 30.261126
1.4018768 27.437012 30.451843
1.5421783 27.340698 44.690956
1.7267013 28.283699 30.290936
1.4634159 28.627954 30.67893
1.5766859 28.371395 44.487797
1.7515744 28.029675 44.661274
1.8794322 28.882832 30.695171
1.8162017 29.408741 31.544851
1.2311245 29.650429 44.220375
1.6300181 29.874605 32.12462
2.1104927 30.341524 32.49095
1.641963 30.081995 43.952583
1.6989115 31.238672 32.737514
1.1477358 30.846094 43.869545
1.8014559 32.45413 33.184273
1.5365828 32.244656 43.40117
1.8371701 32.97177 33.447845
1.7507524 34.35886 34.095753
1.4602634 34.271492 43.10383
2.2299447 34.98027 33.83093
1.3211194 34.96945 36.377853
1.6008239 34.79816 37.61158
1.3052987 35.484146 42.440357
1.388403 35.185135 42.66049
2.2559268 35.83763 35.0846
1.6655316 36.05358 40.962
1.5138034 35.992165 41.696384
1.6043255 35.75966 42.142048
3.0156448 21.315628 36.990913
2.545712 21.325943 37.597248
2.7185922 21.325743 38.312435
3.2795277 21.350845 33.565544
2.4502184 22.015043 34.59008
2.4000247 21.486788 36.495667
2.571401 21.493296 38.61776
2.5389256 21.731949 39.049896
2.6282349 22.13183 39.73007
3.3399618 23.131031 31.168484
[...]
POINT_DATA 4751
SCALARS features_00 float 1
LOOKUP_TABLE default
0.59062916 0.6114948 0.62013626 0.58094895 0.5850874 0.5732853 0.49769413 0.4038 0.5352093 0.63655686 0.76425236 0.56295073 0.5446022 0.5293889 0.45979965 0.39599562 0.54541224 0.6355922 0.69445896 0.54300714 0.6043706 0.6453288 0.5825026 0.6058261 0.61074734 0.65370965 0.7297407 0.7595161 0.51987046 0.5711274 0.60556126 0.58361465 0.52101064 0.6941142 0.743729 0.79798037 0.5231533 0.5629227 0.39961565 0.7992108 0.84078854 0.4968026 0.54705596 0.5109265 0.75206125 0.80827963 0.45628157 0.39556232 0.3907088 0.5012796 0.6265435 0.6825073 0.69707775 0.3657878 0.36680207 0.49820405 0.5790794 0.6615337 0.53399515 0.5369808 0.52635354 0.5456563 0.5255181 0.4313509 0.6639385 0.7170421 0.77421844 0.4563884 0.5076232 0.8005309 0.82860875 0.43702868 0.85371864 0.4424141 0.47775877 0.7780111 0.81185704 0.6864413 0.28726918 0.3040474 0.5594732 0.62546635 0.655138 0.2527383 0.34887773 0.4083251 0.47917634 0.43115586 0.39655995 0.37910485 0.37864447 0.2916166 0.6224749 0.69930905 0.7740041 0.33682805 0.36476785 0.80564135 0.8264824 0.2581396 0.7470366 0.8026972 0.21127814 0.31886476 0.6474703 0.22213525 0.6160216 0.2566587 0.36833006 0.51405805 0.55917007 0.50794154 0.5334239 0.52134055 0.24668011 0.33405888 0.42185664 0.5356731 0.5736566 0.61072123 0.56575435 0.508481 0.60247576 0.6203011 0.57615304 0.22757399 0.28096816 0.62944055 0.21200106 0.78123534 0.19633101 0.68567944 0.18964607 0.1901611 0.22667696 0.48692024 0.2173826 0.28634927 0.45044756 0.31655186 0.36894512 0.39603433 0.4168102 0.49455178 0.55672085 0.589044 0.61640406 0.5833771 0.5023928 0.5985688 0.60611296 0.59621304 0.08792248 0.12865555 0.15476301 0.12921447 0.5148137 0.42528415 0.1614896 0.57391065 0.52950513 0.44839072 0.11225015 0.5780498 0.5486509 0.5585165 0.17412221 0.17881307 0.39566687 0.18744706 0.41320002 0.43122458 0.2771397 0.46777603 0.5450732 0.5595637 0.56717694 0.54716814 0.17829615 0.11286576 0.17282684 0.12110641 0.059734333 0.3908437 0.40396458 0.33843124 0.075186975 0.024163067 0.31514427 0.42588836 0.42439696 0.5469761 0.5387763 0.47920203 0.5060538 0.58872175 0.5828229 0.5955127 0.589342 0.19912389 0.5169438 0.34044415 0.008014922 0.37804762 0.020129204 0.38118234 0.15043616 0.15951602 0.16925642 0.33586755 0.40340286 0.4057972 0.39715463 0.47465616 0.4389158 0.4793712 0.37499115 0.35526383 0.4371128 0.48287714 0.48863393 0.3451283 0.3946252 0.2506129 0.28818652 0.33999914 0.42332876 0.3514036 0.22536996 0.26623318 0.30485618 0.14551926 0.21354339 -0.04087727 -0.06260573 0.10394822 0.31108877 0.378698 0.31313473 0.49189198 0.5187927 0.49182826 0.45443892 0.5063003 0.5160265 0.42947096 0.4459633 0.56219363 0.2805412 0.51872456 0.4654044 0.37322727 0.10597111 0.050531 0.06752017 0.07415803 0.071681425 0.49973053 0.18228422 0.40861988 0.50354594 0.5129398 0.44172424 0.47971937 0.49181634 0.26299745 0.32646653 0.44765916 0.5036057 0.46130776 0.43791676 0.10660869 0.24481845 0.32259053 0.28531817 0.250369 0.09523225 0.17301217 0.099832036 0.25758144 0.37065986 0.07517408 0.39004758 0.4799519 0.5107098 0.26982373 0.27953947 0.5142827 0.37149665 0.4003631 0.49042273 0.48145336 0.44394207 0.4687588 0.44139692 0.4923311 0.49109507 0.33692798 0.37769032 0.42289945 0.27250397 0.1546242 0.15623659 0.05317437 0.114404514 0.064403534 0.10308087 0.10517191 0.21800333 0.090770096 0.1217296 0.48830813 0.20044696 0.10297299 0.012948051 0.5098876 0.5142081 0.22646499 0.4250436 0.48687446 0.50456077 0.45519075 0.5142932 0.4984092 0.10235537 0.21835376 0.45773825 0.48075792 0.4364105 0.35968733 0.025920663 0.04699218 0.053305276 0.09092137 0.20067699 0.29170138 0.28145665 0.000121426245 0.01080506 0.27361262 0.37514326 0.47517958 0.50940394 0.105938494 0.15726092 0.060348526 0.49666715 0.32818237 0.24253595 0.44738317 0.46033204 0.29252997 0.38330293 0.41073242 0.44286716 0.34629253 0.17212643 0.07451755 0.09917619 0.13640827 0.14414069 0.12899028 0.14345023 0.33688366 0.1421193 0.15309256 0.43079862 0.20310912 0.23797835 0.23439984 0.22234726 0.24222896 -0.009283736 0.10025321 0.16051139 0.44315645 0.2078515 0.32617408 0.36399525 0.2754089 0.37270558 0.26958013 0.7314344 0.7770242 0.8103782 0.7098851 0.74850404 0.7846168 0.7353227 0.43150982 0.3613806 0.44458437 0.43536282 0.2903528 0.23146614 0.1375853 0.40637606 0.3672771 0.1404731 0.07926848 0.14353128 0.30701333 0.39819372 0.42753083 0.45892343 0.3801964 0.2700454 0.0978457 0.051664136 0.41876024 0.38473338 0.4514566 0.0349007 0.013603438 0.4023908 0.5051358 0.5198293 -0.053589568 0.4440441 -0.008276101 0.45383102 0.11316642 0.42728794 0.14624652 0.34603053 0.3737408 0.3125305 0.13524029 0.051820595 0.21041045 0.02814705 0.08755817 0.13764067 0.14858046 0.16307381 0.21116954 0.2679621 0.14173262 0.3232724 0.39611876 0.21068686 0.16611275 0.16963151 0.23004994 0.056498952 0.2798492 0.36872113 0.39176565 0.2932847 0.71323466 0.7703997 0.7612672 0.633911 0.7070854 0.78770435 0.8273313 0.8090344 0.5868076 0.6714288 0.8021839 0.7938529 0.5270786 0.6221521 0.69211525 0.7490347 0.75696456 0.6391602 0.70059514 0.736884 0.41014487 0.30769405 0.22509843 0.47504753 0.47551817 0.45069355 0.38392156 0.25279254 0.23727304 0.4654815 0.46787807 0.23071574 0.17524564 0.4363287 0.44201976 0.01558429 0.040670663 0.32320935 0.3529874 0.38911247 0.29901314 0.158736 0.28058696 0.45669705 0.5508957 0.6007018 0.20467904 0.61225665 -0.07747507 -0.06871599 0.54024494 -0.09982984 0.4098547 -0.04424543 -0.052893616 0.3684203 0.40776154 0.010789365 -0.013719127 0.3327694 0.3902167 0.6132505 0.6017283 -0.05242519 0.041825578 0.603547 0.11066505 0.13252214 0.17489116 0.16242442 0.18854564 0.19015993 0.19893819 0.19883907 0.23697275 0.19941127 0.18474439 0.547886 0.13285461 0.45015496 0.51881874 0.6183483 0.2026228 0.60617256 0.6726562 0.6801068 0.65769756 0.6867702 0.5549112 0.5263347 0.64600104 0.5627004 0.67548656 0.6643188 0.5334304 0.7471063 0.22800016 0.7638534 0.73584527 0.42643967 0.7386467 0.7278677 0.12559903 0.43630028 0.6820595 0.70896256 0.4018535 0.42556164 0.13245603 0.4458846 0.2305044 0.23917353 0.4393812 0.06774036 0.39451838 -0.032341823 0.3339426 -0.05336579 0.17217147 0.17074108 0.30405954 0.5093996 0.6116103 0.6286798 0.6169337 -0.08810863 0.535301 0.48061937 -0.09564101 0.23204708 0.37193844 -0.030041099 0.23017533 0.6148045 0.61064124 0.5676148 0.07004931 0.62429297 0.6240623 0.5779429 0.49459708 -0.107770264 0.60491014 0.6023624 0.56264544 0.43152988 0.24256115 -0.05636508 -0.09054412 -0.006726861 0.5459535 0.524491 0.4986899 0.42894843 -0.19526158 0.18924722 0.2052062 0.14630093 0.19359457 0.08517796 0.124898024 0.04999444 0.4147634 0.114861354 0.5698969 0.5464566 0.15648636 0.6132704 0.11564889 0.15175407 0.14008074 0.6925134 0.67346495 0.16909222 0.670311 0.68909574 0.70718414 0.7043317 0.6682371 0.69330585 0.7034905 0.5384983 0.53709656 0.56173176 0.4671293 0.5246309 0.5716049 0.58316386 0.5041812 0.5167503 0.3035735 0.36012188 0.30633613 0.3815803 0.20612243 0.28402025 0.36142313 0.21376854 0.6212846 0.047043636 0.65163213 -0.008415315 0.67995095 -0.25888816 -0.141481 0.61051816 0.12009064 0.25940606 0.4887849 0.04521504 0.28604034 0.021120869 0.27931967 -0.17751044 0.2120129 -0.09505338 0.21031016 -0.004681773 -0.064107545 0.4316222 0.58090395 0.5986058 0.024275031 0.0090342 -0.044876136 0.4702233 -0.01652412 -0.048351735 0.24056268 0.36849397 0.010507476 0.51902986 0.55024827 0.03414904 0.53026897 0.5684081 -0.0886551 0.4852676 0.5615456 -0.06708291 0.44809732 0.46456283 -0.0018780716 -0.42571467 -0.05206771 0.28838125 0.41903543 0.3733131 0.06324159 0.031765535 -0.067005426 -0.31925812 0.18241155 -0.049868613 -0.36974442 -0.34899887 0.17620131 0.8321067 0.7851161 0.12446706 0.83422595 0.776462 -0.18945399 0.8180802 0.7811763 -0.11499257 0.13259539 -0.040647127 0.45513928 0.22738978 0.21794158 0.17225944 0.53216636 0.30411115 0.28158325 0.22862795 0.5841789 0.5767059 0.52006555 0.50109124 0.49542543 0.19297263 0.13784394 0.12868135 -0.053718466 -0.13892907 0.6689991 0.6256911 0.6229391 0.58366334 0.42192245 0.15116951 0.16721116 0.18798877 0.23822102 0.25046667 0.6176102 0.70935744 0.70743906 0.64779186 0.64615035 0.62455946 0.5865235 0.28385743 0.3202585 0.6585443 0.6897698 0.69903916 0.63792765 0.67920256 0.7553009 0.7144052 0.57991254 0.6413393 0.38294625 0.47370583 0.5857513 0.4656202 0.41567016 0.4626935 0.62782776 0.5939802 0.52895224 0.42458543 0.47384775 0.5921726 0.61433625 0.5844991 0.5452708 0.49260026 0.43577725 0.32401615 0.19880402 0.18749718 0.52023435 0.5453244 0.5692023 0.62764645 0.6321542 0.47926366 0.44687194 0.41320598 0.31150505 0.20974258 0.29561234 0.3735345 0.5502356 0.48841423 0.56136715 0.6024362 0.6134653 0.5876974 0.31695232 0.33472532 0.28889483 0.24578066 0.21164267 0.19380854 0.17918393 0.33938253 0.3833839 0.48130143 0.42467636 0.514047 0.55311507 0.5711107 0.1405765 0.13612412 0.12962337 0.2798837 0.3834898 0.35077715 0.31384248 0.33242604 0.4225707 0.5114555 0.19297945 0.20819473 0.1143675 0.14741802 0.24365212 0.27937323 0.25086582 0.16324355 0.06356612 0.16785647 0.08351073 0.020778984 0.022898495 0.45242527 0.4921213 0.5756042 0.042337015 -0.030881274 -0.024668455 0.18294874 0.46551493 0.5375793 0.66279984 0.6843667 0.6322781 0.16643433 0.10659501 -0.09028128 0.5063988 0.6002736 0.68193865 0.6876036 0.64850795 0.1335944 0.17486563 0.12206593 -0.0137296105 0.4143225 0.584435 0.63747835 0.12260558 0.11657151 -0.11455765 -0.372666 0.08169851 0.07068321 -0.17763314 -0.07011101 -0.19205746 -0.2840247 -0.09084773 -0.11027815 -0.24794707 -0.24058093 -0.0011954922 -0.15627207 0.2527634 0.22555459 0.095898315 0.3874486 0.20591298 0.02642506 0.15591723 0.18261969 0.2787196 0.063534945 0.069624856 0.3373807 0.011456662 0.3564511 -0.129235 0.30930328 -0.1513395 0.14801499 0.2945196 0.86272764 0.78209054 0.18617871 0.07154797 -0.1173179 0.8966429 0.8526052 0.75552356 0.6772655 -0.07467499 -0.28290105 0.8799881 0.8488635 0.67696536 0.06580346 0.004076317 -0.06974152 -0.10093329 -0.07522453 -0.22060646 0.19382547 0.8635534 0.8285247 0.776256 0.66268015 0.003625892 -0.033616353 -0.020423535 -0.039839223 -0.12435462 0.3752215 0.8408168 0.80784583 0.7763977 0.68784285 0.082396835 0.14011641 0.1501457 0.061956394 0.43395388 0.20918606 0.15328269 0.481924 0.29149523 0.4948238 0.53780425 0.53821135 0.5214331 0.35581756 0.64760375 0.5920923 0.63628376 0.094086036 0.15504637 0.31493914 0.51313555 0.61258477 0.6841736 0.69253206 0.65807617 0.6607542 0.5272013 0.3553968 0.24597026 0.30664623 0.3357105 0.3346638 0.6417692 0.6699326 0.69237334 0.6692503 0.65659744 0.62339675 0.5608587 0.8372698 0.85737824 0.8275324 0.6971296 0.7243399 0.812534 0.7725328 0.6961387 0.58644336 0.60750484 0.5642952 0.56797564 0.43458664 0.49106956 0.38179284 0.6692775 0.6005049 0.5027169 0.28598028 0.14232472 0.27185643 0.67177975 0.6534902 0.6609899 0.4247191 0.4544447 0.5060732 0.6201167 0.6527995 0.6829268 0.6652218 0.60436326 0.6066152 0.4477872 0.38819015 0.6143745 0.57456243 0.51760674 0.47814232 0.45303655 0.56629467 0.29374754 0.34991843 0.26734796 0.26448813 0.23451993 0.5049256 0.05122517 -0.0628663 0.060253922 0.16272236 0.19678965 0.25777727 0.2585833 0.0013106167 0.3516387 0.49004263 0.47177517 0.44418848 0.45348436 0.46091253 0.36291286 0.038123883 0.12569791 0.049410373 0.06744564 -0.03277804 -0.0087180585 0.22253516 0.16042374 0.14885554 -0.12237432 0.014506768 0.223408 0.36765185 0.41350484 0.40944344 0.40618342 0.29210478 0.23747557 0.10870533 -0.14070776 -0.031095706 0.14225647 0.15256074 0.17311038 0.3738985 0.39111674 0.35804683 0.27725035 0.21011037 0.0750929 -0.21010345 -0.24444206 0.19254676 0.25487608 0.1652646 0.065143004 0.13206132 0.26685643 0.16769475 -0.19542941 -0.29612076 0.15326868 0.16829038 0.40407866 0.50089633 0.10799078 -0.33276144 -0.026003137 0.09520737 0.21058083 0.5529785 0.107331544 -0.02734676 0.0006217137 0.013741143 0.041684642 0.27798077 0.49965924 0.58494467 0.07069723 0.08335862 -0.16874032 -0.04834519 -0.024324194 0.5022278 0.54559696 0.5347022 0.43338442 0.037511505 0.063169435 -0.18256326 -0.17771882 0.032950837 0.052848227 0.08537733 -0.19903454 0.0802286 0.04317996 0.021389663 0.012984831 -0.2510445 -0.30452988 0.12739496 -0.3383302 -0.47200805 -0.4596727 0.17104 0.14811972 0.107849166 0.048472315 -0.13672073 -0.16701773 -0.3564458 -0.2979692 0.22272602 0.23020338 0.2187312 0.12150823 -0.04096494 -0.15485956 0.27418 0.25224993 0.29849225 0.0852858 0.19004396 0.064318 0.05137308 -0.048941016 0.32309312 0.33615956 -0.22483486 0.18314818 -0.17820835 -0.1796739 -0.04745333 -0.040329006 0.81191933 0.849157 0.52823 -0.038108084 0.032939482 0.08078232 0.021062158 0.8414506 0.891886 0.053090084 0.07190779 0.90022826 0.9075927 0.52215165 -0.014985576 0.05721986 0.23798668 0.8791958 0.4879133 0.17773442 0.020974712 0.056950957 0.011795729 0.33596444 0.83601344 0.7942815 0.7628088 0.67611766 0.56261015 0.45512536 -0.005711425 0.3791857 0.42025498 0.72197926 0.6797513 0.20895739 0.21677275 0.4130292 0.44335043 0.46151322 0.54060894 0.5625838 0.6328043 0.30880257 0.5982794 0.6124091 0.6659682 0.33333743 0.09042966 0.2624401 0.3552806 0.37646836 0.40891898 0.6674984 0.6459746 0.5543567 0.47661966 0.41063145 0.37555838 0.3957107 0.795997 0.8386733 0.85139334 0.7823592 0.6530816 0.73507386 0.61466646 0.5842135 0.39124027 0.5652877 0.5040047 0.6776043 0.631624 0.5991912 0.6767056 0.70085686 0.66517055 0.6576128 0.57417387 0.58976233 0.5213779 0.47581774 0.41381693 0.59901 0.587551 0.5424105 0.287728 0.4261675 0.42060655 0.5940705 0.58932513 0.5216425 0.3804859 -0.03868465 -0.005389005 0.3312777 0.52878886 0.48452255 0.30538777 0.17857707 -0.022497289 -0.06954979 0.11036305 -0.065880686 -0.12915085 0.41089895 0.4090445 0.17450462 0.12700538 -0.13552704 -0.07646884 -0.23593107 -0.11862744 0.20891151 0.33254254 0.35789213 0.3478751 -0.31524318 -0.021193828 0.09184458 0.0867078 0.12701185 0.17226772 0.22496793 0.2770779 -0.15673867 -0.08430619 0.1221133 0.06296415 0.12590829 -0.015145361 0.16746312 0.41037995 0.16158754 0.21541694 0.09306106 0.030307114 0.031899787 0.1706542 0.33232665 0.24460723 0.21117517 0.09005114 0.034268286 -0.13242073 -0.13666612 -0.11518957 -0.15822428 0.031779904 0.1315513 0.12670651 0.23590495 0.17884892 0.08602785 -0.25344017 -0.19497547 -0.04031462 0.039604936 0.19143905 0.15767963 0.13431127 0.044570938 -0.04919194 0.07743998 0.13582961 0.22121839 0.20654647 0.16442081 0.09305285 0.062759444 -0.0011746287 -0.30413008 -0.06550868 0.12970571 0.20834443 0.19803973 0.08763561 -0.01748835 0.069652386 0.25751042 0.26858088 0.21809144 0.21623835 0.19139566 0.20644021 0.24648583 -0.1399718 0.2950823 0.25286165 -0.15746877 -0.05340439 0.19618647 0.2888908 -0.3396222 -0.3271357 0.061417416 -0.05556501 0.5139061 -0.026293002 -0.055754475 -0.030267116 0.7014643 -0.036389604 -0.037814036 0.033660654 0.7072027 0.1524622 0.7730997 0.2531221 0.7824963 0.21087447 0.32803875 0.7630014 0.6567584 0.36038393 0.3729115 0.65977025 0.6620633 0.6668885 0.5883094 0.22226658 0.26238582 0.43542275 0.4180933 0.26644647 0.46004847 0.4398905 0.16752827 0.39836958 0.44485223 0.48725215 0.5690385 0.5349474 0.43381882 0.4939538 0.6154165 0.08340877 0.48452914 0.63749385 0.6037562 0.5645998 0.45810163 0.34010702 0.17817803 0.19159825 0.41204625 0.48770612 0.5070129 0.52801955 0.49559915 0.7180884 0.6521158 0.6077298 0.538061 0.6672838 0.54034495 0.55190456 0.57093024 0.49088392 0.6067394 0.5308342 0.4600715 0.52565026 0.5319764 0.58684075 0.63452715 0.58016205 0.60868317 0.047108784 0.4808787 0.57091737 0.5684251 0.5255634 0.5076513 0.58030254 0.58020824 0.54759717 0.4952753 0.17958349 0.27825385 0.5673195 0.59141594 0.39005706 0.03551359 0.31861705 0.47527424 -0.15334922 0.054370098 0.41668075 0.37266433 -0.1418652 0.36060238 0.42239997 0.16696945 0.23610598 0.34212536 0.38919944 0.7277845 0.7408916 0.14366487 0.13032033 0.13097924 0.195799 0.23877922 0.7564894 0.7962664 0.7816045 0.24202496 0.22232911 0.08898943 0.07749063 0.7024889 0.7757205 0.795848 0.7233099 0.25626844 0.22755548 0.20665115 0.0825616 0.05882829 0.7182306 0.7783963 0.75833565 0.6760584 0.23769209 0.19180174 0.18278843 -0.067534596 0.12152166 0.115517095 0.25116262 0.27393132 -0.1428585 0.12303926 0.12429504 0.13568301 0.23339461 -0.019457914 0.072378755 0.109630376 0.13199672 0.09638277 0.04461248 0.1467154 0.15826172 0.22615167 0.31195298 0.23493604 0.3583466 0.34532472 0.25094467 0.21945485 0.24713184 0.49391556 0.4619176 0.3647374 0.1633317 -0.0023632497 0.12406168 0.3704251 0.2795014 0.14784336 -0.1703215 0.16396946 0.10490737 -0.22583508 -0.026370078 -0.049236067 -0.13888913 -0.0658768 0.15361872 0.038203564 -0.20028034 0.37779403 -0.1296534 0.463131 -0.055609018 0.5226276 0.15554564 0.20885651 0.60622287 0.25982657 0.53886294 -0.33098894 0.32498834 0.53103733 0.49272686 0.40743974 0.5394027 0.53503674 0.5255966 0.2663534 0.295967 0.4616356 0.32294232 0.27932322 0.25802827 0.33935085 0.43367314 0.46143833 0.47686857 0.17183724 0.20886947 0.41694793 0.44575822 0.36358196 0.50695735 0.4562587 0.5345181 0.5292793 0.52224123 0.4301949 0.3336922 0.22209439 0.32734305 0.42438957 0.48134246 0.51072365 0.48128733 0.3892831 0.45507997 0.48395145 0.49227297 0.5299746 0.48514646 0.5044391 0.2022143 0.5132857 0.13819726 0.04158938 0.23079532 0.3150325 0.45199543 0.44431224 0.35155034 -0.19735971 0.23742984 0.44134814 0.411001 0.16372135 0.49664664 0.4718013 0.44032896 0.44171146 0.31436956 0.3655284 0.5173737 0.50147414 0.40425193 0.34609425 0.47637618 0.4961821 0.059202634 0.16718872 0.33063173 0.41594845 0.48515278 0.49519563 0.45282847 0.42290744 0.45982814 0.4486984 0.37902454 0.3782135 -0.22887105 0.4588011 0.4676972 0.637448 0.1422938 -0.11876373 -0.15510622 -0.22991544 0.43990558 0.65181553 0.684252 0.6662543 0.6805198 0.17338665 0.2979682 0.66508377 0.7129813 0.6835439 0.0902841 0.21837519 -0.010514975 0.66906154 0.65570927 0.635581 0.26035023 -0.0040302873 0.5898725 0.7232705 0.6681243 0.5821006 0.5401492 0.25354028 0.27623382 0.11374472 0.097466365 0.5408327 0.4466674 0.25164825 0.17161623 0.36225614 0.07475543 0.1566361 -0.0950768 0.11786714 0.17095888 0.20015125 0.16416404 -0.07160517 0.09215807 0.16452341 0.21300644 0.2297062 0.27204397 0.22331485 0.34077197 0.38197535 0.41305935 0.42735973 0.22615623 0.44096348 0.47951716 0.4963398 0.53376615 0.5362897 0.48083055 0.39206737 0.27386025 -0.16859943 0.32623202 0.016051576 0.06301228 -0.05778735 0.111518905 -0.21068819 0.20307317 0.29437625 0.26319733 -0.11167666 -0.1780749 0.18853152 0.35374144 0.34138823 -0.10708685 -0.13792959 0.3612644 -0.15846986 0.38697144 0.34675226 0.401142 0.3454318 0.08765536 0.29805356 0.27005196 0.380444 0.3545162 0.32535666 0.34995434 0.36523816 0.39201933 0.25800812 0.38750172 0.45483345 0.41334635 0.38368496 0.3586601 0.08775108 0.17182474 0.38289565 0.41099513 0.45788202 0.37960577 0.37039506 0.07665317 0.38869393 0.42349783 0.4613003 0.12999474 0.19384824 0.44013777 0.4572286 0.27721006 0.49671727 0.3483839 0.4735183 0.49114412 0.4715221 0.4404016 0.25483122 0.33508068 0.3933562 0.43092775 0.40032163 0.4171965 0.43905294 0.36865968 0.43913776 0.44159716 0.30583084 0.39594185 0.24327092 0.30673802 0.13991243 0.06131219 0.18225624 0.3093291 0.21801966 -0.1260814 -0.19328535 -0.0929765 0.15416053 0.35807723 0.28331283 0.10337952 0.26464418 0.38191748 0.3871488 0.37612468 0.19228369 0.4121815 0.43718213 0.45978805 0.33666337 0.2606721 0.28369784 0.062405646 0.079410665 0.15949488 0.20355907 0.18293671 0.26423588 0.41586727 0.5120416 0.40491316 0.47699165 0.48701885 0.43317264 0.42806596 0.44883555 0.3591342 0.34186554 0.26600364 0.5000575 0.35573983 0.2577419 0.19687912 -0.15349737 0.49575147 0.5522107 0.5585754 0.51840645 0.22671187 0.4848518 0.5147913 0.5180857 0.54887927 0.43575373 0.106597684 0.1408676 0.48273116 0.55183095 -0.027300626 0.018284112 0.0474073 0.13165899 0.40331984 -0.00032504648 -0.018536456 0.11415908 0.07049012 0.20636287 0.4767151 0.365305 0.26720664 0.43174124 0.3390683 0.0726734 0.13113165 0.3988427 0.4791727 0.15474299 0.09551641 0.49855393 0