# vtk DataFile Version 2.0
Really cool data
ASCII
DATASET POLYDATA
POINTS 6676 float
-50.828476 21.332973 37.834293
-50.803463 21.185595 38.783833
-50.71361 21.195124 38.935513
-51.13379 21.833181 37.757523
-51.164593 21.75609 38.618896
-50.943573 21.777071 39.331295
-50.747753 21.904274 39.83382
-50.858883 22.744297 36.904694
-51.213367 22.455318 37.670296
-51.288464 22.281406 38.613007
-51.106678 22.257504 39.297
-50.7593 22.649864 39.89998
-50.824703 23.642527 36.60652
-51.00426 23.531548 37.62061
-51.14917 23.3791 38.600983
-50.983673 23.191483 39.18834
-50.587055 24.69241 35.83803
-50.664394 24.622189 36.443703
-50.97664 24.097612 37.646217
-50.903416 24.387003 38.52512
-50.736057 24.264194 39.136475
-50.63276 25.11069 36.07855
-50.69504 24.95751 36.96716
-50.67651 24.980513 38.107162
-49.63622 17.139435 21.860115
-49.674866 17.245949 22.262917
-49.71178 17.874758 20.976595
-49.919228 17.788239 21.592857
-49.855022 17.60751 22.297539
-49.662354 18.957855 20.023775
-49.823456 18.742422 20.617855
-50.083996 18.529556 21.63497
-50.02117 18.690317 22.28927
-49.716557 18.520088 23.067505
-49.75388 19.20369 32.700592
-49.74545 18.864243 33.722656
-49.600124 18.748077 34.687347
-49.69448 19.53383 20.071012
-49.891445 19.359137 20.752773
-49.991142 19.467566 21.480827
-49.89955 19.481451 22.316158
-49.584724 19.310434 23.100582
-49.776 20.116106 30.635437
-50.089016 20.008339 31.487392
-50.107597 19.788624 32.665733
-50.146313 19.826206 33.318146
-49.88875 19.423323 34.45338
-49.74789 20.226715 20.778273
-49.867847 20.588287 21.510405
-49.848904 20.354483 22.208225
-49.67561 20.750929 30.020021
-49.812393 20.568378 30.710648
-50.24494 20.628979 31.70832
-50.286865 20.429129 32.369064
-49.95082 20.205458 34.240765
-50.516262 21.145597 37.66525
-50.400047 20.95999 38.437668
-50.31796 21.082754 39.281147
-49.660076 21.000608 21.084194
-49.68873 21.025047 21.436768
-49.72424 21.25937 22.087896
-49.75707 22.156857 27.109255
-49.540886 21.67671 28.068089
-49.740585 21.684626 29.645699
-49.93106 21.420248 30.756388
-50.248135 21.13147 31.912352
-50.121914 21.434635 32.711857
-49.660603 22.058895 35.813004
-50.35448 21.57482 36.91706
-50.6046 21.407885 39.60307
-50.389668 21.665241 39.98907
-49.613384 22.559952 26.450865
-49.9128 22.536657 27.568762
-49.895386 22.79395 27.97775
-49.73029 22.654879 29.756268
-49.84244 22.325447 32.05503
-50.397915 22.471897 40.169426
-49.745953 23.261469 26.14074
-49.825184 23.332436 26.48141
-50.0114 23.62218 27.500305
-50.022575 23.739143 28.396795
-50.331097 23.525217 35.6699
-50.610462 23.589577 39.613518
-50.097084 23.277668 40.111492
-49.78928 24.099136 26.732788
-49.962097 24.504597 27.669376
-50.040577 24.35185 28.282621
-49.6524 24.389349 29.860912
-50.05552 25.023518 34.162666
-50.113243 24.777113 34.638374
-50.461117 24.193996 35.7719
-50.501205 24.323673 39.336113
-50.26966 24.061817 39.701103
-49.78814 25.19879 27.720654
-49.792744 25.285175 28.35517
-49.64127 25.03706 29.318783
-49.91932 25.279324 34.07012
-50.103436 25.554838 34.529667
-50.451614 25.414646 36.02812
-50.463196 25.654451 36.402565
-50.195267 25.47028 38.342907
-50.137253 24.955166 39.16509
-49.795464 26.503105 34.640106
-50.09048 26.203564 35.55739
-50.14805 26.381311 36.596985
-50.136658 26.210909 37.291946
-49.888462 26.116646 37.916237
-49.71003 26.772335 35.563213
-49.889217 26.643509 36.49475
-49.827595 26.646515 37.148876
-48.868404 13.142124 31.163158
-48.95303 12.859576 31.700874
-48.959705 12.822499 32.382042
-48.840755 12.989404 33.182537
-48.828613 13.4164095 31.09235
-49.20036 13.449539 31.713028
-49.281227 13.520282 32.40828
-49.022667 13.550838 33.323772
-48.717857 13.40067 33.70797
-48.97378 14.117265 31.158775
-49.177673 14.20159 31.723557
-49.271698 14.269445 32.533344
-49.04004 14.178453 33.318726
-48.78661 14.251208 33.718933
-48.69499 15.075646 31.313818
-48.675446 15.312487 32.669273
-48.66924 15.283505 33.00343
-49.11262 17.114594 20.867523
-49.171688 16.846878 21.577177
-49.312763 17.024324 22.431772
-49.00096 17.153719 23.17324
-49.001457 18.177088 19.8001
-49.435555 17.692268 20.67712
-49.528446 17.353016 22.671427
-49.542934 17.718632 23.002886
-49.093548 17.797358 23.809307
-49.018284 17.946835 33.933407
-49.03761 18.138617 35.14781
-49.156307 18.679482 19.633345
-49.512264 18.244946 23.208216
-48.936436 18.38817 24.15159
-48.61152 18.301563 29.513033
-48.956615 19.173023 30.64486
-48.860477 19.160069 31.115396
-49.555355 19.083645 32.621487
-49.48712 18.621038 33.3995
-49.357292 18.546099 34.71902
-48.76964 18.381853 35.92982
-49.00919 19.33303 19.415607
-49.27081 19.441603 19.590591
-48.749035 19.492826 24.390102
-48.64802 19.872828 27.099203
-48.72149 19.19427 28.014977
-49.2991 19.931383 30.220495
-49.365154 19.53357 35.423553
-49.01963 19.81918 36.044407
-49.013115 20.356447 38.194405
-49.1319 20.344803 19.923958
-48.612007 20.573484 24.697405
-48.87709 20.761633 26.671576
-49.0675 20.703068 27.678484
-49.516804 20.52687 29.55026
-49.202682 20.296007 35.702496
-48.925804 20.273092 36.25182
-49.552036 20.659737 37.909733
-49.5345 20.560453 38.57372
-49.46086 20.770426 39.23883
-49.684414 21.10386 39.790348
-49.22507 21.08684 20.669243
-49.404396 21.569569 21.657503
-49.417084 21.318604 22.630507
-49.003784 21.456837 23.248453
-49.39232 21.661196 26.68162
-49.486942 21.933195 28.767641
-49.48439 21.50171 34.510727
-49.422787 21.475368 40.239292
-48.768425 21.915203 21.121035
-49.369736 21.686197 21.762648
-49.195587 21.823668 22.190573
-49.314728 22.726564 25.568678
-49.4477 22.304102 26.225086
-49.525936 22.75311 31.03828
-49.064667 22.938244 33.92366
-49.312943 22.065966 34.3102
-49.817654 22.766531 40.44948
-48.953136 23.760908 25.157837
-49.392654 23.732927 25.682932
-49.372055 22.771072 30.918442
-49.292854 22.957153 32.406525
-49.282986 23.895334 33.91755
-49.625004 23.312206 40.224632
-49.16242 24.2151 25.813482
-49.568424 24.561096 26.7668
-49.147453 24.228945 32.48943
-49.510555 24.301876 39.894554
-49.472965 25.22156 26.997463
-49.545807 25.563581 27.580194
-49.561176 25.693016 28.864967
-49.446785 25.540379 29.250069
-49.373547 25.192389 29.97771
-48.852337 25.242172 31.613096
-49.177887 25.548851 32.834385
-49.397366 25.093176 39.324852
-49.115704 25.816301 27.152117
-49.176376 25.98925 27.63375
-49.25143 26.045633 28.394175
-48.92129 26.2432 29.435602
-48.808247 26.000114 32.23401
-49.524094 26.656305 34.426746
-49.295086 26.071566 38.191612
-49.25119 26.85063 34.179523
-49.324055 26.890083 34.6398
-49.35299 27.016144 35.461308
-49.190258 27.00664 36.690403
-49.44484 26.711372 37.225937
-48.117165 12.306125 31.662891
-48.199493 12.267486 32.36886
-48.18314 12.359714 32.976112
-48.263107 12.846197 31.052015
-48.57031 12.573162 31.58226
-48.59691 12.481731 32.412247
-48.42382 12.716423 33.25342
-48.171368 13.04182 33.865734
-48.3726 13.462265 30.841389
-48.396767 13.539866 33.9176
-48.295235 14.257264 30.833761
-48.29444 14.329328 34.027092
-48.302708 16.387077 21.465906
-48.009174 16.24567 22.222467
-47.703465 16.12173 27.693724
-48.611492 14.953608 31.325481
-47.80189 15.570633 33.609722
-48.080456 14.814486 33.84225
-47.55336 15.317873 41.95222
-47.526714 15.470838 42.2075
-48.115826 17.225855 20.225756
-48.372093 16.770325 20.729578
-48.48946 16.51624 21.31533
-48.360645 16.55688 22.819828
-48.387955 16.754492 23.133247
-47.967857 17.032663 24.285603
-47.69399 16.829369 26.577969
-47.900753 16.494589 27.472895
-47.9691 16.592892 27.99359
-48.006912 15.703147 32.702763
-48.04144 17.133356 34.87123
-47.967396 17.095291 35.175587
-48.248886 17.993673 19.686367
-48.518944 17.48785 24.188576
-48.160313 17.34063 27.605747
-48.395367 17.632774 28.183676
-47.716713 17.346745 29.863207
-48.157585 18.366243 32.03944
-48.287075 17.453424 34.383144
-48.533077 17.728664 35.54181
-48.212795 17.760614 36.306305
-47.752167 17.517221 36.950665
-48.492756 18.670319 19.313538
-48.56941 18.442389 19.493355
-48.28954 18.384624 27.082134
-48.567696 18.823988 31.95331
-48.588108 18.293785 36.32533
-47.572025 18.566433 37.998455
-48.50111 19.34778 19.24239
-48.29657 19.157022 26.703312
-47.827915 19.19204 37.476036
-48.679684 19.907236 19.388319
-48.511696 20.266073 26.439972
-48.671383 20.478182 37.903584
-48.433987 20.829739 39.15198
-48.02187 21.190302 41.400593
-48.412216 21.166885 20.059502
-48.654053 21.658703 20.750658
-48.455353 21.985765 24.9302
-48.540573 21.953928 41.182564
-47.85546 21.66417 42.712852
-47.6972 21.768099 43.0964
-48.282837 21.766798 20.624914
-48.474663 22.231995 21.65136
-48.472412 21.958141 23.82513
-48.30548 22.26966 41.715878
-47.86886 22.38851 42.622143
-47.905132 22.943602 22.068924
-48.013027 23.25246 22.735271
-48.33535 23.030565 23.92938
-48.08962 23.183146 41.60288
-47.915794 22.919373 42.253464
-48.14234 24.019953 24.639523
-47.993877 24.268812 40.21043
-48.279778 25.211128 25.966091
-48.934826 24.849483 39.591675
-48.306965 25.896158 26.741087
-48.226334 26.389368 27.439022
-48.38239 26.500565 28.395294
-48.50708 26.482924 31.434141
-48.643616 26.331863 38.123913
-48.43896 25.93001 38.637993
-48.445534 26.621138 27.995718
-47.814533 27.253204 28.93021
-48.4923 26.919968 29.706232
-48.20986 27.132784 30.63961
-48.231834 27.340261 31.356379
-48.159958 27.463379 33.94309
-48.517235 27.406 34.607822
-48.437702 27.43124 35.35756
-48.55883 27.145016 36.65305
-48.635765 26.80506 37.45492
-48.628708 26.624245 37.74321
-47.796677 27.992908 31.059448
-47.81786 27.989368 31.67787
-48.08633 27.537613 34.92776
-48.269836 27.513407 35.36973
-47.118458 12.293109 31.168657
-47.45448 12.129283 31.676815
-47.256996 11.914976 32.56316
-47.32289 12.05501 33.06809
-47.628258 12.722112 30.97998
-47.64765 12.518618 33.558556
-47.019165 12.699866 34.03912
-46.73267 13.145708 41.718513
-46.6638 13.280699 43.01804
-47.73153 13.195723 30.75436
-46.980755 14.074508 34.760303
-46.872612 14.117272 36.93266
-46.886402 14.141712 37.277172
-46.741825 13.394729 41.208324
-47.048676 13.67225 41.606617
-47.0656 13.662561 42.452263
-46.871178 13.688138 43.137302
[...]
POINT_DATA 6676
SCALARS features_00 float 1
LOOKUP_TABLE default
0.60735726 0.6220696 0.6200407 0.63557315 0.663242 0.66048574 0.64189744 0.430117 0.6181214 0.6814473 0.66710865 0.6095623 0.3398622 0.508971 0.62193584 0.6150597 0.32704332 0.36239892 0.48795485 0.560059 0.5482118 0.3829623 0.44156665 0.5471502 0.6364893 0.59743255 0.69888496 0.66460776 0.594356 0.6762604 0.682902 0.6479701 0.5899799 0.5076194 0.35041323 0.35281113 0.30488056 0.66372055 0.6490128 0.6089074 0.55421937 0.4633379 0.2699374 0.3197145 0.3597963 0.36305806 0.3400474 0.5982162 0.5307729 0.48990762 0.21204588 0.27172124 0.33206046 0.35651663 0.34555689 0.557685 0.57222426 0.58972657 0.5307847 0.5127585 0.4561823 0.2443839 0.15118805 0.1976838 0.263733 0.32412195 0.2985183 0.074851535 0.4601176 0.63059115 0.6166282 0.29027423 0.280135 0.28895304 0.19701359 0.16645405 0.5782677 0.35799408 0.37052202 0.39041507 0.36954597 0.1986633 0.55179757 0.50057536 0.41595516 0.4351903 0.4178991 0.244037 0.25723207 0.26192242 0.2721181 0.52896917 0.50952303 0.4378704 0.42003846 0.35270068 0.29005435 0.38207376 0.4232639 0.4803465 0.52782387 0.4917873 0.45677277 0.48876914 0.5404789 0.5412514 0.5096831 0.5010146 0.5338912 0.52293485 0.81139493 0.8359366 0.83685386 0.77974176 0.80494165 0.8588587 0.88563836 0.7915137 0.7372267 0.7929165 0.86196214 0.90498596 0.7730749 0.71320856 0.7663144 0.7052927 0.64043856 0.65765667 0.6383698 0.5683448 0.48247376 0.6423373 0.6895991 0.549528 0.51945615 0.45261517 0.29711616 0.24229768 0.6584045 0.4955721 0.40118444 0.12037814 0.17617816 0.23318554 0.34172052 0.3439955 0.28999656 0.17374007 0.6599008 0.66743505 0.27084604 0.013783871 0.07214534 0.21388671 0.25637114 0.160337 0.3182919 0.6429473 -0.0068005323 0.036957026 0.055778783 0.14686152 0.2217536 0.064009815 0.41300142 0.4680589 0.47863874 0.52835876 0.5436651 0.47520977 0.4042353 0.3233096 0.16890395 0.16905364 0.15060943 0.50095236 0.4545535 0.46480778 0.43472505 0.2636425 0.24341977 0.13053542 -0.021354415 0.045927368 0.46534038 0.29508677 0.36158597 0.12895353 0.017779894 0.035942014 0.42391956 0.37815708 0.42932802 -0.050741743 0.40736952 0.4337955 0.42710292 0.37529433 0.34266996 0.22132574 -0.032644324 0.10778253 0.40527162 0.40600076 0.3948004 0.37231517 0.26660538 0.058829352 0.43695563 0.45472535 0.40339172 0.44633812 0.48135966 0.49391943 0.5008445 0.7605785 0.75392365 0.7112164 0.76680136 0.80223024 0.79386586 0.7277607 0.6548406 0.7641109 0.6865581 0.72381866 0.6462706 0.5585964 0.48938 0.35004345 0.7629211 0.52903485 0.5993655 0.58788764 0.5947925 0.52024156 0.5679205 0.58641326 0.4741621 0.4422479 0.30188304 0.29598376 0.33820826 0.36372757 0.58115387 0.1557963 0.14511646 0.566494 0.3988553 0.3292681 0.3089773 0.22259632 0.2374528 0.21794572 0.17920482 0.08571824 0.015944663 0.6123502 0.61654115 0.18738535 0.29174125 0.120929085 -0.0025633192 0.63328046 0.034787927 -0.08203174 0.65908706 -0.037029088 0.18400733 0.315263 0.28595 0.5514766 0.484169 0.04630401 0.32962483 0.48776448 0.53219837 0.46665138 0.41141328 0.19120103 0.4022844 0.49794483 0.32727417 0.26542062 0.19220036 0.34176987 0.44794452 0.19007072 0.10259949 0.32900104 0.31594437 0.34990755 0.31373236 0.29749948 0.057753604 0.390812 0.3265316 0.30701467 0.19288117 0.19131681 0.13742585 0.13837993 0.25992066 0.39647657 0.4290807 0.44402972 0.4263912 0.41165376 0.19204113 0.19359924 0.3669849 0.41275337 0.65369564 0.6974032 0.6488501 0.6090709 0.6994956 0.60571814 0.4688684 0.58848417 0.593091 0.7026744 0.4304702 0.26486278 0.27491078 0.5465061 0.60966146 0.63755935 0.59957796 0.5541204 0.6729852 0.20612472 0.25516874 0.2521147 0.52188855 0.59719646 0.6293218 0.5976492 0.49230534 0.4371863 0.3538181 0.31306803 0.26395157 0.3013093 0.34808534 0.50199795 0.4955429 0.08129297 0.12543899 0.09557435 0.4512341 0.4885043 0.59840167 0.5890173 0.5518633 0.48256794 0.47311974 0.15710858 0.15808082 0.2651302 0.27206224 0.22917095 0.6798513 0.5189782 0.021337193 0.02069703 0.48873842 0.524994 0.52028537 0.49232394 0.013019644 0.013140353 0.006813312 0.4654184 0.4675545 -0.018308062 -0.15803222 -0.23945273 0.54584426 0.5583381 -0.061572246 0.057514016 0.47500563 0.47512293 0.43571734 0.5363491 0.53611875 0.40637046 0.5549691 0.56051946 0.32014945 0.22045563 0.36287463 0.5307515 0.21057387 0.12872078 0.09742096 0.32756984 0.16479 0.13256247 0.13474143 0.2214337 0.16328508 0.17634057 0.24247217 0.33389202 0.32044983 0.19494167 0.21780485 0.21832836 0.09083794 0.27747554 0.27428615 0.2525931 0.58504784 0.62557065 0.5699694 0.5031164 0.45697916 0.56776285 0.38903305 0.18950965 0.33720225 0.54006493 0.5759108 0.5528183 0.51791143 0.538539 0.2968423 0.32441178 0.31238812 0.34667212 0.443433 0.56335026 0.51461375 0.52482784 0.29733792 0.2904146 0.25390917 0.18646036 0.20943674 0.33112344 0.16132066 0.10226303 0.48410547 0.3405907 0.25518608 0.45780557 0.40595663 -0.03704024 0.15998486 -0.14217114 -0.26401177 0.09987886 0.42876184 -0.2792935 -0.1760291 0.15023582 0.3836511 0.2984487 0.4732526 0.22651622 0.5480176 0.7538373 0.2507685 0.42653966 0.51722467 0.7807404 0.77861077 0.7326298 0.09968185 0.26662308 0.3485387 0.7862091 -0.019380495 0.0366569 0.107728206 0.1192505 0.14709939 0.053459994 -0.008693624 0.124594286 0.20049182 0.12184498 0.20312592 0.226208 0.12706016 -0.059589982 0.33673906 0.33487865 0.3164923 0.20524773 0.14783806 0.8257025 0.8354199 0.36156544 0.34654117 0.28792328 0.13907105 0.041418932 0.569375 0.55286425 0.5423794 0.5757047 0.5746955 0.5045778 0.39040655 0.31375784 0.43898976 0.47406453 0.5013282 0.32764322 0.33126187 0.39265865 0.36105767 0.44580734 0.48162887 0.49702784 0.4832474 0.4944871 0.18894285 0.3986886 0.104975395 0.41335046 0.29449266 0.29005572 0.21995385 0.15071645 0.044402972 0.15204394 0.24931899 0.31253985 0.23966001 0.22924697 0.06523379 -0.03221216 0.073398 0.12199114 0.20337893 0.041813664 0.08571869 0.13392754 0.1289381 0.024512425 0.34914076 0.68429995 0.62520707 0.20220244 0.469046 0.43609828 0.7500253 0.7401409 0.7224659 0.6500021 0.44775224 0.78230524 0.7823809 0.67467797 -0.042510405 0.062966175 0.23085238 0.36714488 0.7990694 0.80899286 0.8000332 0.7257482 0.07635026 0.082363494 0.05526892 0.08384694 0.12502411 0.8062891 0.47743517 0.52451897 0.10858396 0.12907308 -0.0945901 0.009044252 0.5265594 0.5386313 0.1318976 -0.17953219 0.028470535 0.20021763 -0.21970975 0.71904707 0.74406797 0.74491453 0.28513372 0.037190825 0.7968949 0.8204752 0.80884236 0.77043355 0.34418726 0.3623945 0.37364215 0.2290055 0.12786339 0.16921663 0.14039949 0.16648772 0.66632366 0.7986069 0.8436352 0.8453393 0.800282 0.41062725 0.33354053 0.39421046 0.3362493 0.20895341 0.74322426 0.8148556 0.8469299 0.54090315 0.5474775 0.53231037 0.6454592 0.6254524 0.60758185 0.5834395 0.5138503 0.66874576 0.63375235 0.6050541 0.32458332 0.13006571 0.2195146 0.30414826 0.30632538 0.10897249 0.11570522 0.30358648 0.32772735 0.33278605 0.16471043 0.18197638 0.18937972 0.2626924 0.15669423 0.1462157 0.28235984 0.31197798 0.3017003 0.20959775 -0.086222425 -0.09042078 0.17258842 0.23621948 0.26599973 0.23171097 0.21486486 0.18660514 0.2858698 0.15942876 0.17109087 0.15965892 0.17166995 0.50730306 0.47516984 0.24210253 0.19536497 0.049587145 -0.042402133 0.15230528 0.17649001 0.5545843 0.5406401 0.5099236 0.22475484 0.21786852 -0.114932746 0.06739901 0.6288507 0.30853102 0.12259756 0.119621806 0.1582269 0.03175667 0.69463265 0.05827917 0.104979016 0.11624816 0.11060957 0.051878303 0.7384999 0.12796116 0.07640803 0.12338679 0.14590022 -0.23768911 0.010529794 0.7815051 0.7927476 0.23545529 0.3966959 0.37265286 0.29801297 0.80033046 0.79556507 0.72141665 0.36185282 0.5415313 0.5071924 0.14126657 -0.19886974 -0.20548809 -0.06301584 0.050477013 0.46185613 0.5233796 0.55455697 0.5692848 0.57457787 0.13213852 0.07078499 0.5816747 0.5849915 0.5310512 0.5565635 0.5703207 0.091337316 -0.28970274 0.68453026 0.20127894 0.15496622 0.20263743 0.5682958 0.70443046 0.63470495 0.29625764 0.34965193 0.35936952 0.22882497 0.23342797 0.45222422 0.7311432 0.6601802 0.25072148 0.29463357 0.25766152 0.54800445 0.6468625 0.7454259 0.7796139 0.7544058 0.58966124 0.5538609 0.50447357 0.5889944 0.5713868 0.6934494 0.72030675 0.6385045 0.6581768 0.5189954 0.48283055 0.48825592 0.5840142 0.6396818 0.67314774 0.67380226 0.6691495 0.63981926 0.601135 0.6406278 0.63824224 0.5759717 0.6347157 0.5267374 0.54881877 0.5499575 0.5144445 0.4469385 0.43387476 0.44234532 0.3836764 0.40427825 0.50167096 0.50072765 0.13866639 0.10430279 0.13245356 0.10923532 0.11655246 0.23483533 0.46434787 0.4246949 0.07086468 0.20966266 0.265847 0.25118992 0.21268257 -0.0113064945 0.06418859 0.0040546264 0.30099386 0.22109392 0.12954634 -0.0043466836 0.07626657 0.15884985 0.3057595 0.3281638 0.29932034 0.24229068 -0.19813877 -0.23292442 0.1557337 0.21008508 0.21564649 0.24531655 0.16886997 0.12450369 0.049035996 0.04004144 0.16342273 0.107312754 0.24830812 0.14134769 0.47491848 0.4708264 0.40378594 0.20489053 0.18060705 0.22227654 0.5267305 0.1473832 0.29513472 0.5302639 0.5544502 0.024747975 0.17975602 0.3107699 0.5826545 -0.1698694 -0.07734509 0.196895 0.66115016 0.036760688 -0.27537033 0.72141635 0.15583502 -0.16350777 -0.31032917 0.059597343 0.6273539 0.60898143 0.36564094 0.2273955 -0.42098325 -0.036179304 -0.03452898 -0.21627536 0.12497951 0.41307378 0.39414388 0.5663902 0.4496317 0.5430559 0.25485328 0.17616463 -0.73193455 -0.11941473 0.27168077 0.26958302 0.4094141 0.4662392 0.48741168 0.52401215 0.54846466 0.56257844 0.21244514 0.14324623 -0.024506683 0.19797711 0.52526784 0.103572145 0.14241622 -0.06434154 0.03687662 0.12730119 0.55728805 0.24848175 0.3065766 0.13283384 0.059073716 -0.08709656 -0.0802245 0.20357554 0.5902208 0.34651482 0.3699529 0.39628342 0.4772665 0.61824936 0.5842237 0.534824 0.36124456 0.4680834 0.52508676 0.5988851 0.63417995 0.6131797 0.64751637 0.639508 0.455496 0.45305192 0.5683676 0.6226502 0.60288024 0.6193309 0.5981641 0.53989714 0.5705893 0.60226643 0.69162595 0.688887 0.6267429 0.45959038 0.54106116 0.629673 0.65953976 0.5906123 0.42072684 0.42624784 0.4899801 0.42789766 0.5124207 0.4949008 0.3357854 0.24964923 0.17411461 0.21875434 0.37372887 0.36151025 0.47206506 0.5170176 0.23784666 0.066712245 0.0015426464 0.21929641 0.38638258 0.033130895 0.064320594 0.022826223 0.046956565 -0.01886913 0.06676099 0.29895318 0.2594512 0.20005642 -0.15815662 -0.1106161 0.21318951 0.08925016 0.24784446 0.30346826 0.1974063 0.14125708 0.04397534 -0.10278308 0.26742762 0.33568132 0.2683672 0.21417701 0.30196345 0.092428036 0.21010712 0.28868914 0.08922163 0.3087597 0.24475282 0.12792794 0.17719844 0.4330898 0.34965762 0.2584275 0.29259294 0.43196994 0.33259705 0.3447874 0.44876105 0.379438 0.47259167 -0.16083306 0.48888254 0.22145496 0.55653894 0.5127082 0.27092922 0.23623815 -0.30911735 -0.18332128 -0.09133537 0.3434073 0.35583812 0.5263204 -0.50217164 -0.20819214 -0.23449594 0.37719297 0.36111367 0.52027935 0.4544683 0.3365 0.397128 0.3061559 -0.739383 -0.062494546 -0.31286976 -0.22993776 0.46446747 0.52588016 0.29369068 0.2526693 0.16932094 0.02897222 -0.07959138 -0.13388902 -0.2572043 -0.20889871 -0.09127944 0.34668595 0.463593 0.45702308 0.44260478 0.4889949 0.020625923 -0.07585878 -0.14373742 -0.13525781 0.4759497 0.12333152 0.5223392 0.061408438 0.30950984 0.55371565 0.54009485 0.4373845 0.14632703 0.2820768 0.33531618 0.38687447 0.4930153 0.49427682 0.4939962 0.42049402 0.34745747 0.19679962 0.057595294 0.19591618 0.29550317 0.4975819 0.4457186 0.77914226 0.7449005 0.3201167 0.456689 0.40548798 0.5196679 0.45778298 0.811132 0.789395 0.6271711 0.6315024 0.5182817 0.5642405 0.6531389 0.5851706 0.438282 0.5325153 0.469954 0.24865177 0.31087813 0.4847458 0.4356853 0.46825773 0.48485512 0.41905022 0.33856505 0.22123922 0.12564075 0.32159317 0.37701863 0.4151605 0.073765606 -0.016995315 0.1897778 0.3863128 -0.051315498 -0.0965845 0.059833772 0.25389016 -0.073877424 0.14867978 0.19073509 0.32766834 0.37936634 0.13624671 0.11655016 0.004104711 0.3550515 0.4006641 0.2987369 0.111467525 0.39700246 0.33454162 0.31873202 0.2572558 0.372716 0.30998772 0.33996892 0.07931049 0.15173031 0.22640881 0.23983568 0.07306369 0.2665722 0.25950068 0.29923403 0.36085576 0.34093884 0.37275743 0.35151342 0.3632077 0.38493338 0.29533687 0.2940511 0.39650175 0.20017016 0.4592323 0.4320978 -0.014635414 0.32561123 0.49144846 0.45261955 0.4280848 0.35140732 0.2731598 0.43674278 0.40494582 0.42742866 0.4407708 0.37690383 0.30489218 0.22193882 0.27252048 0.43774197 0.43022096 0.3967453 0.3695572 0.25179273 0.43193522 0.15504423 0.439881 -0.08306938 0.022965662 0.1828036 0.32473195 0.34907115 0.40365365 0.5815228 0.17986542 0.042373627 0.27392828 0.6798711 0.7189908 0.62731636 0.2760922 0.3785047 0.3734845 0.6947595 0.75253177 0.74958265 0.6618727 0.51798546 0.10900908 0.19522649 0.21709551 0.34490246 0.38792473 0.4430938 0.7464683 0.7913552 0.8207811 0.7004183 0.6114964 0.76222146 0.80851763 0.81966364 0.7948558 0.52946925 0.5803279 0.4706887 0.52036643 0.57650626 0.53106534 0.50234944 0.18608505 0.25944272 0.49503744 0.42943284 0.27627093 0.15824042 0.33209085 0.37665805 0.41567928 0.06712846 0.086161606 0.26855114 0.016021475 0.27632034 -0.12851349 -0.18615142 -0.20173861 -0.14117339 0.007366866 -0.17613238 -0.31871006 -0.5112957 0.31993124 0.5793011 0.061380997 0.31630415 0.3854596 0.5498766 0.5482557 -0.17908266 0.40510297 0.34047723 0.113472596 0.03160461 0.40614682 0.30191118 0.31030953 0.36536488 0.28117722 0.31299818 0.27959833 0.30322236 0.21125047 0.22927868 0.24817345 0.2876886 0.27764624 0.3144704 0.30559886 0.26829264 0.33583993 -0.3472485 0.38641846 0.24740134 0.21224469 0.30333337 0.4314118 0.27732378 0.32531804 0.36407852 0.44881427 0.43471462 0.36370534 0.28781956 0.39504614 0.3671763 0.36134908 0.4049342 0.35222158 0.2156161 0.25405908 0.32166392 0.3588084 0.47290075 0.3410489 0.15311477 0.12344562 0.07935347 0.40234846 0.38611555 0.41975793 0.47508425 0.49889606 0.115575045 0.15097113 0.16601926 0.2990482 0.31132996 0.39048523 -0.0540267 0.09349327 0.20343912 0.23128414 0.2752302 0.47133273 -0.250267 0.1461201 0.12447227 0.5929965 0.4428798 0.3579027 0.06221177 0.2577473 0.2834997 0.27268112 0.26974648 0.2612839 0.20012003 0.6832136 0.6261786 0.30884248 0.3131522 0.32236114 0.75124 0.78167593 0.7989117 0.76740044 0.77254754 0.7664081 0.37205857 0.46233958 0.43754354 0.26992863 0.4144998 0.40255556 0.56498826 0.54114556 0.3970388 0.34893656 0.31884414 0.5128162 0.49478537 0.35094446 0.25677675 0.1936185 0.017698936 0.14599982 0.45036966 0.31951693 0.1551099 0.13475801 0.099961974 0.026120868 0.27465463 0.35988432 0.2554362 0.24068911 0.07931898 0.03662373 -0.04063244 -0.0846648 -0.012344051 0.18841094 0.3077326 0.15050095 -0.11610232 -0.044153545 0.1536104 -0.078539446 -0.16149454 -0.19938163 0.23615578 0.3335154 0.56755644 0.5719609 0.5703311 0.5206031 0.35300735 0.34977275 0.5421169 0.54113024 0.17318764 0.038421154 -0.3258614 -0.11851625 0.3819903 0.37189054 0.508541 -0.3033173 0.37233987 0.36378676 -0.7826607 0.3410954 0.3315408 0.2763078 0.31792748 0.26504335 0.2341077 0.25803912 0.22528177 0.2598642 0.2774999 0.066825934 0.31586173 -0.35049367 -0.14564686 0.32485947 -0.28192627 -0.33075255 -0.35157043 0.17892495 0.36681175 -0.34238952 0.22103846 -0.5063125 -0.5254797 0.29064494 0.39743263 0.37854832 0.32601357 0.34225318 0.13505149 -0.38587254 0.3771031 0.3464737 0.26582932 0.37029773 0.018772285 -0.10648401 0.35727748 0.40331465 -0.07959896 0.2673661 0.30177695 0.3576116 0.5330838 0.07305613 0.1362178 0.45205724 0.47932994 0.5227849 0.5720477 0.57220805 0.10328886 0.05025214 0.5444435 0.56692624 0.15776777 0.17134471 0.28134698 -0.00683908 0.26053938 0.28740454 0.19735754 0.14723809 -0.01138024 0.043742444 -0.019641498 0.025749387 0.13824585 0.23390234 0.24890174 0.36519212 0.094003335 0.03485477 0.028427437 0.07143638 0.49361438 0.4783187 0.1983373 0.60144407 0.63509 0.5393376 0.34005883 0.34725502 0.34093824 0.72116673 0.63908666 0.7562843 0.7622261 0.7096113 0.6796261 0.44355953 0.35121185 0.63953733 0.6240919 0.5334674 0.40715668 0.29389971 0.19374864 0.26887167 0.36550325 0.33832413 0.6126243 0.526394 0.47843802 0.33331782 0.20277789 0.08309257 0.14998561 0.31914315 0.2860906 0.52680373 0.4948486 0.23800553 0.14628597 0.2801674 0.20649809 0.24824096 0.15657036 0.12634104 0.11012448 0.20571655 0.61637557 0.6213089 0.59894955 0.5084481 0.39370036 0.3096699 0.09751661 0.08554572 0.21502495 0.58785003 0.281066 0.19162333 0.027808947 0.26325125 0.37112564 0.54814047 0.4101423 0.1553927 0.102433644 0.057844814 0.037575833 0.47169042 0.37794372 0.02724116 -0.016625607 0.030113712 0.468225 -0.002998516 -0.0903341 -0.00074005127 0.33710602 0.48708403 0.43953395 -0.31245965 -0.030301305 0.27625638 0.54592425 0.5596229 0.5334046 0.32295913 0.1533221 -0.40698397 -0.47962016 0.32130373 0.3280677 0.5241886 0.034066692 -0.08546908 -0.40735257 -0.4367162 0.27692735 0.33159542 0.4004504 -0.29732978 0.29210168 0.33407927 0.3685752 -0.6030434 -0.5686354 0.30585492 0.31967777 0.28549233 0.36594048 -0.09115176 0.23677854 0.25497106 0.34942573 -0.10158107 0.17630541 0.35947555 -0.16141537 -0.44605607 -0.17793876 -0.107982755 -0.09201781 -0.0831635 -0.22341797 0.33870858 -0.44375056 -0.36595052 -0.2269937 0.050072342 -0.44361538 0.17487238 -0.5829946 0.16002364 0.29195505 0.34062678 0.28433058 0.17196484 -0.053487275 0.12455024 -0.4247797 0.3289451 0.3151532 0.17474797 0.32203555 0.34395075 0.11083244 0.29212415 0.45483398 0.484286 0.58277094 0.09085955 0.5218181 0.56440216 0.62002754 0.596999 0.09161457 0.53033143 0.59594303 0.5686601 0.19564883 -0.11949509 0.22134824 0.029741783 0.24610233 0.2523629 -0.06298502 -0.03478332 0.16203488 0.21535727 0.24344496 0.22621977 0.32242912 0.25893968 0.14412113 0.23280834 0.2928391 0.20583841 0.2579034 0.23579785 0.5706705 0.44368353 0.56330067 0.40308952 0.32929814 0.34369913 0.33003804 0.6484912 0.71149635 0.5099014 0.73444873 0.71372086 0.6843133 0.63537705 0.61909574 0.6275564 0.6116616 0.33328032 0.28819808 0.64059687 0.6174516 0.517475 0.43224558 0.356691 0.33202866 0.31818935 0.26051348 0.62601876 0.64324164 0.6411802 0.2361854 0.16629392 0.5934787 0.5906681 0.14094041 0.07609965 0.27080858 0.52528965 0.44622314 0.015221817 -0.07719432 0.09633771 0.32694396 0.40060705 0.52768636 0.26163906 -0.260984 0.16898833 0.30526206 0.39642945 0.6228328 0.62445617 0.57014304 0.4251024 0.36628363 0.2766077 0.086582646 -0.1620645 0.59601176 0.6119075 0.2362881 0.18593723 0.11893745 0.009724036 0.010474563 0.35119164 0.40567797 0.42199072 0.56511 0.10255921 -0.089388646 -0.03161431 0.47969228 0.35143802 -0.065344006 0.47772282 -0.075571254 0.23762788 0.35751647 0.23889801 0.26766255 0.2513716 -0.16418645 -0.19294523 0.18627071 0.50895613 -0.2139446 -0.23075551 -0.35585108 0.21970792 0.51635015 -0.30134922 -0.35411924 -0.36521834 0.251371 0.377572 -0.336071 -0.48904768 0.2613439 0.26951408 0.379723 0.3543945 0.26943472 0.43351328 0.42205474 0.2819197 0.4252817 -0.098997734 0.30919075 0.40465257 -0.44024748 -0.052796446 -0.1714716 0.34781253 0.34213167 0.3473681 -0.13273059 -0.13860719 -0.014726255 0.3130034 7.304177e-05 -0.022387713 -0.09276059 -0.0862532 0.31785408 0.23351002 0.1056653 -0.28396407 -0.25053996 -0.08665451 -0.30705222 0.10084067 -0.1984003 0.2112372 0.20610322 -0.020276673 0.39297527 0.4751625 0.19314213 0.24588057 0.52058274 0.5565896 0.58200556 0.65315884 -0.120314255 -0.10270016 0.13239503 0.07981246 -0.07010586 0.17256427 0.015819455 -0.16250148 0.22681472 -0.122075826 0.23767956 -0.08618274 0.29249877 0.27778083 -0.06410651 0.045428596 0.3358953 0.04500039 0.2654377 0.1524188 0.09463992 0.5693931 0.557888 0.45812273 0.25366956 0.77210236 0.69547164 0.61485046 0.59720945 0.6034439 0.5560775 0.60574913 0.6136506 0.6112333 0.63815236 0.5309794 0.595714 0.61437684 0.63115454 0.6588541 0.5602293 0.6025068 0.6246734 0.6492194 0.51721287 0.54201055 0.5719243 0.635483 0.7282352 0.71731234 0.3262212 0.62657845 0.60545814 0.62901115 0.60249007 0.33159816 0.19604956 0.29508182 0.32967955 0.25551632 0.2970827 0.22707368