# vtk DataFile Version 2.0
Really cool data
ASCII
DATASET POLYDATA
POINTS 6867 float
-49.584106 27.855879 8.95734
-49.59686 27.718813 9.382725
-49.581253 28.16654 8.988325
-49.61246 28.205025 9.365661
-48.994774 27.084164 8.685594
-49.185326 26.974916 9.648404
-48.944084 26.876116 10.445329
-48.7322 26.878826 11.372918
-49.12374 27.64159 8.354019
-49.40439 27.626131 8.743087
-49.327183 27.623735 10.353245
-48.920486 27.405375 11.327255
-48.638775 27.362076 11.905193
-49.009056 28.313196 8.260167
-49.446053 28.261717 8.776768
-49.390816 28.587423 9.747388
-49.347076 28.319897 10.253706
-48.9766 28.162516 11.158576
-49.174355 28.921654 9.344632
-49.238213 28.793585 9.917991
-47.871128 26.303574 8.9317875
-48.202446 26.15417 9.483619
-48.22941 26.025434 10.428391
-48.104263 26.11596 11.461292
-47.93822 26.239199 11.931069
-48.00176 26.914396 8.120264
-48.37996 26.669643 8.662667
-48.553383 26.446568 9.390523
-48.569447 26.452991 10.564068
-48.41163 26.429548 11.521502
-48.276913 26.710325 11.943083
-48.357346 27.492693 7.9356785
-48.163887 27.364931 12.389487
-48.399845 28.29751 7.9528503
-47.820866 28.40552 12.65231
-48.586086 29.006683 8.607552
-48.28661 29.322527 9.465697
-48.4615 29.23127 10.247256
-48.393593 29.088413 11.339067
-47.816116 29.438635 12.378244
-47.72949 30.11114 14.697246
-48.00367 30.186417 15.41915
-47.913536 29.928244 16.500586
-47.65379 29.86289 17.613522
-47.62606 29.984043 18.333279
-48.182373 30.503235 15.895377
-48.233448 30.538319 16.561085
-48.250603 30.960182 17.332808
-47.83679 30.79486 18.462763
-47.62629 30.616608 18.882742
-47.76299 31.46398 13.5676565
-48.128635 31.227352 14.965905
-48.339657 31.54753 15.673742
-48.395584 31.62926 16.425287
-48.32185 31.47923 17.342571
-47.99707 31.794992 18.156141
-47.778625 31.319359 18.80836
-47.69203 33.10185 11.432225
-47.740925 32.019073 13.9245405
-48.096344 32.64589 14.949714
-48.290447 32.69845 15.666146
-48.391354 32.44784 16.356136
-48.15386 32.48457 17.559864
-47.944122 32.258934 17.955687
-47.685047 33.762012 10.668816
-47.745552 33.479187 11.604561
-47.670918 33.439644 12.400281
-47.613388 33.774902 13.010558
-48.262794 33.802013 15.902965
-48.394493 33.258236 16.533112
-48.23077 33.354424 17.203318
-47.955402 33.276573 17.739206
-47.640408 34.340515 10.765352
-47.729584 34.427143 11.431804
-47.66183 34.20243 12.319768
-47.54715 34.24782 14.025333
-47.53751 34.611073 14.226048
-48.01431 34.413254 15.934432
-48.080284 34.249958 16.480648
-48.11303 34.052063 16.993748
-47.577908 34.9046 11.288919
-47.630585 34.749886 15.82691
-47.781776 34.736904 16.038305
-47.05168 25.095345 10.010993
-47.096073 24.91052 10.714593
-46.770607 25.15121 12.050601
-47.018288 26.345722 8.437721
-47.361855 25.657064 9.876074
-47.5118 25.482824 10.433578
-47.459133 25.502436 11.356414
-47.138977 25.904562 12.217053
-47.582058 27.15974 7.76365
-47.638382 26.513327 8.511924
-47.616547 26.563347 12.477627
-47.70914 27.284336 12.770093
-46.954975 29.147776 15.925007
-46.92701 28.951132 16.433437
-47.20361 29.02607 17.28485
-46.880466 28.843618 18.386969
-46.74154 29.08568 18.90188
-46.748016 29.858717 4.2426853
-46.874336 29.694408 4.6903405
-47.13656 30.011032 5.4198856
-47.482883 29.690136 15.519955
-47.572 29.539276 17.35888
-47.481964 29.993645 18.565746
-46.98738 29.856798 19.073692
-46.92253 30.866936 3.8410234
-47.22093 30.763529 4.470544
-47.20656 30.637638 5.247257
-46.97868 30.599277 6.1427855
-47.370422 29.62686 9.8250475
-47.298267 30.020744 10.680032
-47.251465 30.591927 19.240908
-47.00448 31.507816 3.8384612
-47.274593 31.53323 4.49262
-47.21724 31.40334 5.4821396
-47.350143 31.345314 19.224813
-46.96102 32.09061 4.028452
-46.985775 32.2596 4.465456
-46.99516 32.149548 5.3129516
-47.10493 33.048763 10.167501
-47.120335 32.530525 10.698326
-47.456158 32.76879 11.3846655
-47.45887 33.117085 12.194327
-46.89918 31.85183 19.354052
-46.66522 32.645607 5.098616
-47.310154 33.689598 10.067985
-47.521214 33.533844 10.529018
-47.243378 33.134724 18.231264
-46.76491 32.96217 18.794222
-47.29501 34.508312 10.154961
-47.466972 34.706898 10.551042
-47.4932 34.61131 15.099014
-47.57919 34.63738 15.781057
-47.52479 34.297245 17.537518
-47.18111 34.099854 17.898582
-46.86566 35.184643 10.055187
-47.3043 35.045074 10.6698675
-47.32688 35.341248 11.378559
-47.16899 35.006718 13.008973
-46.995537 35.48309 14.474833
-47.362923 35.261005 15.522638
-47.530514 34.93122 16.567513
-46.984985 35.0333 17.016756
-46.862835 35.801147 10.951571
-46.96974 35.78949 11.356471
-46.947758 35.764748 11.981187
-46.797756 35.816105 14.195753
-45.591583 14.896595 -1.318193
-45.61756 14.966137 -0.8210832
-45.652973 15.45895 -1.321496
-45.655197 15.417946 -0.68541056
-45.617085 15.93737 -1.390023
-45.618553 15.968523 -0.75589365
-45.636395 22.870037 9.787504
-45.725616 22.856447 10.470211
-45.67463 23.141333 11.401881
-45.666363 23.648935 9.081556
-46.096664 24.018589 9.5425005
-46.233807 23.869146 10.315023
-46.20377 23.835556 11.122034
-45.99253 24.200058 11.884631
-46.49807 24.514935 11.547052
-46.18981 24.65152 12.031997
-46.67448 25.271988 12.078341
-46.65424 26.914234 7.708111
-46.519157 26.712582 13.282542
-46.261326 27.13084 14.041925
-45.84612 27.563623 6.8250313
-46.11676 27.69468 14.44813
-46.047398 28.353773 16.53947
-46.472836 28.345926 17.153368
-46.249283 28.289587 18.28667
-45.80384 28.905436 4.1733966
-46.248905 28.765808 4.8159814
-46.505066 28.731607 5.5786314
-46.360714 28.548334 15.125502
-46.636086 28.422546 17.836393
-46.524895 28.576561 18.458647
-46.26513 28.827047 18.950924
-46.223053 29.680307 3.8598518
-46.67512 29.450546 19.11553
-46.45328 31.02942 3.4050615
-46.491306 30.694494 3.5572517
-45.728043 30.623785 8.855139
-46.575108 30.42289 19.652344
-46.151627 31.558615 3.3488767
-46.62534 31.434711 3.5124662
-46.593483 31.628967 19.53525
-46.300163 31.393515 19.792841
-46.090256 31.91954 3.3843348
-46.30565 32.299145 3.7028766
-46.308296 32.190384 6.3219247
-46.145668 32.300747 9.992079
-46.16413 32.28705 19.529976
-46.274117 32.688602 4.116512
-46.34908 32.815975 4.6024275
-46.168194 32.961514 5.2792354
-45.755695 33.397377 19.59737
-46.115128 34.492764 8.977888
-45.70106 34.793037 19.378351
-45.945038 34.988586 9.143718
-46.402103 35.357273 9.872839
-45.926064 35.650967 18.721537
-45.811134 35.322895 19.118765
-46.16152 35.70156 10.1087475
-46.40319 35.927727 10.775699
-46.364315 36.14195 11.316627
-46.322186 36.236176 12.643387
-46.08666 36.44762 13.425853
-46.40423 36.29357 14.73153
-46.334156 36.243557 15.462693
-45.945927 35.989277 16.68912
-45.736366 36.397717 16.970057
-45.73916 36.134388 18.335388
-45.859085 36.68195 13.443245
-44.85794 14.163484 -2.0643253
-44.960316 14.067751 -1.5127468
-44.917465 14.127492 -0.6909682
-45.08278 14.690435 -2.280453
-45.399708 14.5910015 -1.4449397
-45.327934 14.625346 -0.6316046
-45.08699 14.840005 -0.085796
-44.846394 15.458029 -2.7014453
-45.365116 15.628726 -2.0748708
-45.5149 15.42268 -0.39609063
-45.14228 15.412698 0.040143043
-44.86999 16.41875 -2.312664
-45.390476 16.365454 -1.3016094
-45.40838 16.236818 -0.67009723
-45.166847 16.136631 -0.14519867
-44.77003 16.999107 -2.1103477
-44.962624 16.975811 -1.4443141
-44.97939 16.82308 -0.6793865
-44.62186 20.926373 10.692492
-44.72277 21.180496 10.94445
-44.730225 21.672976 9.874487
-44.974052 21.617615 10.6550455
-45.092484 21.960043 11.131086
-45.41258 22.991055 9.184458
-45.563206 23.061163 9.437672
-45.51921 22.808666 10.173953
-45.250282 22.677595 11.463216
-44.907513 22.72774 11.878842
-45.41181 23.412615 8.973386
-45.647186 23.336182 11.616945
-45.281597 23.619305 12.008781
-45.552956 24.20479 8.814466
-45.127617 24.919836 12.4027195
-45.18327 25.730743 13.198122
-45.297085 26.169254 13.792862
-45.664734 26.692896 14.267366
-45.412075 28.21032 4.8005376
-45.50579 27.96971 5.4623494
-45.353333 27.994637 16.658455
-45.45541 28.002668 17.678787
-45.523678 28.171206 18.33596
-45.762024 28.397644 18.738577
-45.191166 28.88154 3.9503493
-45.657337 28.674145 4.373735
-45.566666 28.727745 19.13778
-45.207584 29.75356 3.4564047
-45.479427 29.394133 3.6953802
-45.44214 29.598972 19.64784
-45.652515 30.89815 3.2770836
-45.642498 30.313143 19.688066
-45.562218 31.755653 3.280787
-45.045845 31.475912 19.782463
-45.499683 32.06166 3.3628247
-45.290417 32.425743 3.6042995
-45.435535 32.471203 19.843544
-45.63286 32.775482 4.0262146
-45.755856 33.047028 4.7075014
-45.736946 33.10087 5.204911
-45.408535 33.264275 8.35715
-45.074677 33.72622 20.353712
-44.815414 33.722282 20.641327
-45.315586 33.971767 8.189825
-45.01789 34.471447 20.373373
-44.770752 34.535477 20.602352
-45.546055 35.020077 8.925252
-45.447678 35.450752 9.465158
-45.30832 35.612846 19.404013
-45.036938 35.29307 19.920385
-45.68658 35.63395 9.896818
-45.701603 36.070583 10.824417
-45.60072 36.374325 11.656714
-45.626003 36.422916 17.764605
-45.33759 36.366116 18.465384
-45.24346 35.998547 19.096554
-45.1009 36.557777 11.899875
-45.374043 36.706116 12.534103
-45.51947 36.777637 13.505178
-45.75427 36.578827 14.035464
-45.18689 36.835304 15.233926
-45.060173 36.690044 16.583231
-45.15843 36.646576 17.616295
-45.074543 36.599632 18.080904
-44.341908 14.004799 -2.2215772
-44.48563 13.805842 -1.3937451
-44.556 13.971101 -0.57846504
-44.247707 14.176096 0.021514922
-44.34645 14.524143 -2.7707822
-44.43973 14.569014 0.21979457
-44.46768 15.406217 -2.9195378
-44.66368 15.506689 0.33023682
-44.084694 16.368692 -3.0130792
-44.200535 16.330252 0.2684838
-44.45989 17.316896 -2.3053293
-44.51944 17.500383 -1.4081652
-44.292294 17.311743 -0.72577643
-43.98315 17.80636 -2.2706158
-44.05809 17.871939 -1.6649351
-44.270187 17.63196 -1.0425023
-43.55767 19.981924 7.7896557
-43.803646 20.131756 9.759985
-43.854183 20.74035 8.544871
-44.23971 20.660141 9.789251
-44.376503 20.655691 10.723815
-44.133312 20.640228 11.341613
-43.979633 20.911049 11.793612
-43.709778 21.664516 8.080915
-44.13759 21.780708 8.826043
-44.42512 21.685772 9.360957
-44.485447 21.294159 11.549017
-44.001274 21.53429 12.007507
[...]
POINT_DATA 6867
SCALARS features_00 float 1
LOOKUP_TABLE default
0.76673895 0.75811976 0.76187706 0.7549634 0.71592236 0.71291196 0.5903119 0.47723234 0.7586343 0.76643914 0.7100574 0.5358157 0.45594507 0.76207143 0.7576966 0.72399116 0.7150329 0.60785425 0.6945972 0.69940877 0.47109887 0.4679972 0.42021215 0.39114603 0.3585136 0.5512792 0.5870425 0.55868155 0.48126602 0.41688085 0.39715236 0.66291726 0.40816006 0.73898995 0.46755236 0.71359116 0.59036744 0.60049385 0.57362163 0.43827656 0.2849651 0.3483954 0.3976839 0.48570526 0.51816726 0.37955242 0.41900036 0.46641284 0.5028232 0.51857895 0.07697325 0.325621 0.37577957 0.43029347 0.45952594 0.45918393 0.48744184 0.46298265 0.1359361 0.28409025 0.38044134 0.43677482 0.449134 0.443564 0.5204646 0.46856326 0.3664438 0.29379982 0.36641836 0.44641575 0.45720756 0.44441462 0.5388825 0.5107672 0.42882568 0.23054886 0.24992219 0.33490157 0.39309245 0.43257797 0.536728 0.30852592 0.32729977 0.27190003 0.31147516 0.2708927 0.35477734 0.33021185 0.344839 0.35450375 0.27377212 0.47085017 0.46901464 0.3127968 0.3640887 0.32043982 0.38460964 0.47775537 0.55330133 0.5616523 0.6510329 0.63649523 0.6709551 0.3225865 0.46945363 0.5279995 0.5441513 0.7634686 0.76155925 0.73347557 0.6651232 0.39310235 0.3738752 0.5222423 0.8112135 0.8251593 0.7879504 0.47823617 0.84022534 0.85094357 0.82830036 0.49217296 0.45462167 0.43519837 0.36655623 0.39932778 0.820109 0.53625757 0.5158782 0.39071947 0.32362667 0.5649657 0.5572924 0.27132273 0.3096117 0.42022508 0.39445597 0.5451554 0.5561006 0.5413762 0.37378997 0.2802767 0.26310596 0.35002148 0.37200907 0.5299103 0.52932227 0.50107324 0.32073706 0.84872234 0.83881855 0.8198444 0.82075155 0.7855526 0.79122174 0.34107196 0.37286454 0.36940277 0.3447448 0.34625146 0.34453118 0.32829463 0.27347773 0.28901348 0.25156426 0.2620131 0.2754725 0.22103545 0.19362122 0.09156763 0.1241135 0.45736742 0.5131352 0.5646565 0.42960855 0.43241096 0.41298127 0.12985052 0.5470794 0.56645876 0.57350487 0.59549236 0.55576545 0.75497293 0.7295531 -0.30437618 0.514378 0.7727388 0.7918614 0.38794455 0.3685143 0.78297675 0.8102027 0.7290519 0.42098123 0.27686653 0.8194277 0.8220944 0.7746518 0.28010976 0.50916433 0.47304404 0.5101264 0.5224515 0.49033022 0.5082511 0.50364447 0.50345683 0.49133015 0.4508316 0.43503463 0.34754425 0.32483125 0.35739517 0.40477335 0.49599227 0.4493061 0.86545646 0.8700517 0.8587477 0.8691113 0.8643507 0.84868205 0.8396721 0.79975545 0.82604814 0.81772643 0.81949544 0.729788 0.74591243 0.7701671 0.78208613 0.6501368 0.66295004 0.70145667 0.33980203 0.36109287 0.30182683 0.36321765 0.3950147 0.3144289 0.33247808 0.35976914 0.3975405 0.39485645 0.32104537 0.35068616 0.29095912 0.37706655 0.18391138 0.22556803 0.27136177 0.2658049 0.283585 0.23118898 0.48245388 0.5294409 0.5453427 0.5651975 0.35997343 0.37610316 0.5604161 0.536753 0.48833632 0.5465611 0.71055174 0.47615853 0.7466699 0.26339078 0.7570705 0.7597215 0.241618 0.7881719 0.777966 0.73232436 0.42952603 0.38678625 0.41432774 0.493588 0.501225 0.52492696 0.5215728 0.49867165 0.5813767 0.5851284 0.485316 0.4552968 0.4470594 0.46457145 0.53188413 0.5736284 0.42167577 0.44118086 0.45866728 0.43798846 0.45447958 0.44119704 0.47599745 0.50755876 0.814582 0.85117257 0.851294 0.83872294 0.74909747 0.84303844 0.71372896 0.82572603 0.6489185 0.77545357 0.6050812 0.5847258 0.5972862 0.54919165 0.5334825 0.5499955 0.3200573 0.252782 0.3113557 0.30438694 0.32502887 0.36456043 0.417607 0.3290552 0.27212453 0.26763368 0.39365038 0.41239685 0.33269733 0.33177143 0.14195158 0.17273071 0.12688632 0.1761162 0.16215235 0.15728563 0.15493593 0.3199123 0.45404434 0.50406384 0.5248578 0.2596781 0.44831467 0.5003454 0.6846583 0.651792 0.31402764 0.72758895 0.7223001 0.23785648 0.13188738 0.34999937 0.42237985 0.7339966 0.71008795 0.5309193 0.04755038 0.41207612 0.44754583 0.5043679 0.52763426 0.52033913 0.46300808 0.58971906 0.56339514 0.37328944 0.39435223 0.37878203 0.5404541 0.5887433 0.40829593 0.42015254 0.42816126 0.44620317 0.46562427 0.4642988 0.48434222 0.51253086 0.72295 0.75662833 0.79724526 0.7896743 0.5550641 0.7818713 0.4606896 0.4629372 0.4637192 0.55651355 0.78918207 0.5670013 0.2913667 0.23132439 0.18493678 0.55898756 0.4984459 0.49394235 0.47533345 0.31083322 0.32457396 0.28257355 0.15996501 0.16877715 0.14446823 0.31162027 0.34293053 0.3007588 0.25683108 0.20197436 0.23920494 0.3266186 0.33324635 0.34952563 0.3430665 0.33313358 0.29985112 0.19327268 0.23789239 -0.07954657 0.19507515 -0.18404494 0.10719303 0.11692572 0.09738245 0.077752724 0.09772523 0.0660489 -0.018693402 0.21621893 0.14984572 0.2632402 0.40159392 0.42807746 0.52762794 0.4895153 0.33767384 0.3137812 0.3977437 0.45643893 0.5617448 0.5958063 0.29987693 0.043025028 0.010861501 0.5160786 0.5399677 0.54259086 0.34057438 0.34859422 0.24121407 0.22148398 0.5770271 0.56023866 0.31060743 0.33290175 0.34803247 0.35009885 0.51152086 0.58185166 0.59827566 0.38561976 0.3773384 0.3800547 0.42744762 0.47123867 0.46180585 0.5137685 0.73677576 0.39483428 0.42784986 0.41277054 0.6669855 0.45704955 0.42710015 0.42303956 0.43227005 0.3992805 0.3678701 0.3733948 0.27205792 0.1458209 0.4766347 0.3106805 0.35348228 0.31913143 0.2152195 0.032391995 0.23810743 0.47760704 0.51974696 0.4609478 0.39945233 0.34033006 0.23077098 0.15992288 0.26643506 0.29839957 0.12967986 0.08231851 0.09700864 0.12576929 0.26350817 0.36504665 0.37158296 0.44248554 0.19780219 0.28814802 0.33758208 0.3274103 0.29290318 0.37286255 0.36376473 0.24294391 0.15006785 0.21529949 0.09240021 0.024511784 0.09284256 -0.19955504 0.01934342 -0.33095115 -0.24834143 0.23157607 0.44479913 0.22758801 -0.015988 0.52997804 0.49279273 0.075567126 0.54474103 0.5483053 0.3283743 0.5292908 0.48822686 0.4045378 0.47313702 -0.04134628 0.5470108 -0.081090815 -0.063479014 0.6175123 0.13874052 0.19282243 0.5968176 0.26570022 0.21796148 0.14204597 0.54173213 0.5717466 0.26628095 0.24640754 0.280479 0.55395675 0.3300845 0.33251703 0.3471142 0.3913777 0.42044848 0.42560768 0.50902796 0.36285383 0.3947683 0.44070095 0.37072638 0.3374189 0.45967487 0.35102546 0.3351984 0.48369083 0.3900182 0.3754543 0.49062514 0.4328239 0.3620206 0.19463278 0.43140265 0.18851826 0.13479623 0.08042815 0.0056886524 0.28554875 0.3870158 0.41400212 0.43903783 0.44298536 0.037795637 0.019111842 -0.022556704 0.018029299 0.38726956 0.4137379 0.4510273 0.4618212 0.15406483 -0.052773442 -0.027808674 0.15855663 0.3809824 0.3714218 0.4734487 0.4220048 0.2945948 0.054540962 0.33698818 0.28458333 0.29880407 0.37220067 0.30559576 0.24168792 -0.01083586 0.047095604 0.1708889 0.052674916 0.014602685 -0.010252081 -0.3902698 -0.40480548 0.06996104 0.051703878 -0.12918052 0.46939623 0.3004738 -0.1354875 0.53976625 -0.14168966 0.55160147 0.2654784 0.4686312 0.4478374 0.48528555 0.48520923 0.49689722 0.49906388 0.4409923 0.34116817 -0.12883034 -0.22420853 0.57888865 0.7798594 0.7227189 0.6929493 -0.25140935 0.6284602 0.48607126 0.46429017 0.027976267 0.09112589 0.2288566 0.1589322 -0.11742744 0.5608114 0.57771754 0.5715947 0.24243301 0.061590467 0.28363615 0.3653857 0.52846193 0.63958514 0.6490843 0.65356946 0.29611868 0.23065177 0.2761245 0.27678776 0.33598587 0.644072 0.6455036 0.30068654 0.2592536 0.30751497 0.2903028 0.34851748 0.48310816 0.4983444 0.48420924 0.36145198 0.32010353 0.28982726 0.3550633 0.3350872 0.30870923 0.26677623 0.2950467 0.24742979 0.24234611 0.33743036 0.38343868 0.40116456 0.4268262 0.41176462 0.06969166 0.2525079 0.39819536 0.41415608 0.4433299 0.44098812 0.4388603 0.38921624 0.42220062 -0.0047697825 0.3377426 0.3611382 0.2298469 0.019361284 0.007549189 0.31245387 0.32003284 0.2290168 0.26866424 0.3174154 0.15955533 0.11602442 -0.52616566 -0.13353832 -0.06692429 -0.60145557 -0.17942408 -0.032902896 -0.19062105 0.35873792 0.3525692 0.016457878 -0.16718882 -0.1616574 -0.14770412 0.48736787 0.1403335 0.5861393 0.85144806 0.7909057 0.5809946 0.87868667 0.84268 0.7820435 0.71830195 0.63171434 0.1961931 -0.146038 -0.21259552 -0.3266591 -0.37775367 0.62603676 0.85247004 0.8083867 0.73554575 0.6416202 0.55441207 0.29154587 0.30404207 0.23195085 0.05320102 -0.1071195 -0.18040946 0.61168367 0.8262802 0.74558413 0.6922705 0.6355869 0.4543598 0.3541444 -0.079039246 -0.08164143 0.3061308 0.54537505 0.67572033 0.64346576 0.57466066 0.48433575 0.63495845 0.559232 -0.03934341 0.17081854 0.28734168 0.34172544 0.53493226 0.40876424 0.5776955 0.67520237 0.65893924 0.5955308 0.61603624 0.6324847 0.6525146 0.6576102 0.7310498 0.71839267 0.7328837 0.69465834 0.77172625 0.78262067 0.7560102 0.7450063 0.671187 0.72701204 0.82421786 0.84448457 0.75981987 0.7462537 0.69699484 0.7376519 0.8114075 0.8439938 0.7666867 0.7408019 0.26730964 0.2688951 0.23883794 0.20057425 0.0927714 -0.01758675 0.3030579 0.2907796 0.2790895 0.2599353 0.013426706 0.25019354 0.33809245 0.414192 0.407067 0.30156508 0.2972465 0.26238737 0.25875115 0.3342054 0.34041572 0.29984057 0.30273497 0.24083358 0.16019912 0.3123261 0.36881524 0.39420933 0.40989375 0.49744254 0.35747713 0.52419674 0.5708077 0.43494207 0.49220765 0.58019817 0.3798926 0.37920278 0.5083048 0.5584587 0.19354236 0.03025608 0.2232067 0.4402708 0.29703826 0.34331784 0.18343988 0.13902557 -0.12551033 -0.064648405 0.15594736 0.38636908 0.12460917 -0.47460353 -0.00014332682 -0.0909062 -0.37274712 0.2740546 -0.0748176 -0.14530572 -0.109862305 -0.42116812 0.42686003 0.39414015 0.27117175 0.12066218 -0.12485325 -0.20200092 0.18502958 0.31896418 0.42495775 0.40116256 0.035368707 0.2636276 0.4203334 0.38655168 0.054462213 0.13291714 0.27589673 0.94150853 0.9071668 0.86929846 0.7812736 0.40845394 0.21001509 0.93955636 0.9030924 0.3088276 0.29840496 0.0847486 0.5651849 0.5950388 0.93843246 -0.12500967 -0.04008381 -0.08492586 -0.0020104684 0.48202884 0.8594932 0.7755612 0.061604977 0.015756384 0.20404626 0.38792259 0.117230915 0.11719172 0.09404776 0.2831468 0.69828904 0.16632295 0.21286981 0.6545105 0.6258663 0.58754593 0.55612814 0.45567822 0.4718709 0.4201678 0.46073171 0.5568462 0.6211694 0.5898458 0.54914266 0.57677746 0.59600043 0.5605523 0.60644674 0.6341533 0.6646587 0.51083076 0.60688317 0.6985946 0.67015505 0.5579322 0.6913007 0.6040438 0.60578024 0.61707985 0.617336 0.6035618 0.6707065 0.6727561 0.6313375 0.60732865 0.65276325 0.69075894 0.6795056 0.6909418 0.68543744 0.56913626 0.6851982 0.71714365 0.7675327 0.7433691 0.7649361 0.27309775 0.25151756 0.1935545 0.11790352 -0.030540954 0.26548913 0.32957 0.3079111 0.18145013 0.3014433 0.23143813 0.10748883 0.029106688 0.22532693 0.28523785 0.2184058 -0.014602542 0.4805827 0.5307271 0.58313555 0.5985743 0.61328316 0.63246006 0.59641707 0.62280035 0.3100817 0.31939286 0.41721547 0.55475 0.4061416 0.43964726 0.031778622 -0.018604312 -0.20355868 0.06848194 0.17973398 0.48848224 0.30825013 0.08066758 -0.019881489 -0.15094723 -0.25400555 -0.40574422 0.48621696 0.15419662 -0.03715368 -0.4919814 -0.37712502 -0.062025845 -0.14937285 -0.29891008 0.41047084 0.30450362 0.16362321 -0.308899 0.35331833 0.41997367 0.4471025 0.43693167 -0.11283521 0.35916382 0.4140051 0.41335133 0.4136231 0.26760477 0.34091973 0.41134784 0.40622434 0.218342 -0.07803526 0.098103635 -0.0062445253 0.6222048 0.9360503 0.89695704 0.7656754 0.43697935 0.35614508 0.031359076 0.58596903 0.98329437 0.3136948 0.28167075 0.22668731 0.06678672 0.999347 0.24212557 0.94394106 0.0058561563 0.03991407 0.3135398 0.106239945 0.27050877 0.2720035 0.7851666 0.70383817 0.02023391 0.0054712705 0.00185664 0.24876726 0.33445308 0.3918627 0.19980367 0.6750374 0.64465404 0.5540229 0.4113681 0.39733565 0.40217328 0.4902609 0.5166602 0.53570676 0.4889422 0.49645177 0.5492641 0.45897523 0.41914916 0.48455787 0.51333416 0.5522725 0.3155644 0.78247654 0.82475686 0.8252425 0.5158802 0.4815172 0.5201798 0.49887496 0.23977557 0.5211507 0.627044 0.6965102 0.7903012 0.7886034 0.5552473 0.5507839 0.54323214 0.6335631 0.45789957 0.54719985 0.57961357 0.6923145 0.7394936 0.55159295 0.5753155 0.32805336 0.27492678 0.50843453 0.5813878 0.6669128 0.74685013 0.40252423 0.48486522 0.5770538 0.25285316 0.23675896 0.14549766 0.15462144 0.117044434 0.04065544 0.0053014234 0.21438187 0.20609148 0.15476233 0.0830763 0.19940053 0.21491107 0.28523037 0.3135398 0.010197606 0.0049410686 -0.23689549 -0.07805235 0.0592368 0.35874093 0.43371022 0.5067512 0.5255413 0.18909554 -0.3079362 0.5813562 0.24486853 0.6300383 0.60834223 0.22192764 0.45051825 0.50707054 0.56978583 0.3325785 0.4538623 0.15800503 0.49194834 -0.41065317 0.4943726 0.49372393 0.4507324 0.41195735 0.06767913 -0.37370914 -0.45593974 -0.1657112 -0.24445379 -0.17490084 0.3575207 0.4663821 0.43600267 0.4502893 0.48076528 0.4245499 0.4529949 0.46410716 0.48338315 0.41149086 0.3467834 0.40128094 0.37150618 0.40532914 0.57154024 0.6272272 0.64838314 -0.09447777 0.35953546 0.60389155 0.6777028 0.6696938 0.13245724 0.36892304 0.69803846 0.68946606 0.897473 0.79199386 0.6582556 0.43532273 0.6232648 0.68719673 0.7034507 0.9729943 0.9076123 0.31835487 0.20468952 0.586505 0.985448 0.26484787 0.24352953 0.3813693 0.4437867 0.9098696 0.005475357 0.2301565 0.19231758 0.2341147 0.2773358 0.27970725 0.6977835 -0.0074150823 0.02850568 0.014104828 0.33727336 0.3741489 0.369421 0.24685839 0.25502235 0.6575811 0.59717566 0.48239988 0.13771561 -0.013837205 0.444319 0.3968868 0.37786528 0.39317948 0.43956524 0.39930078 0.42783463 0.42044532 0.4103029 0.37227008 0.3778047 0.37288344 0.31861648 0.38512778 0.72655445 0.7531518 0.47067982 0.4288566 0.41215712 0.33066243 0.08447944 0.17138018 0.54003656 0.75669694 0.8035183 0.82078916 0.53433895 0.5116025 0.4687171 0.6643487 0.79148626 0.7663622 0.73742986 0.72848165 0.5076326 0.20801601 -0.0013878345 0.62260485 0.65837264 0.33196467 0.15999198 -0.22371556 0.21463272 0.39712012 0.26092735 0.42534918 -0.02748327 0.18335438 0.21180859 0.13791342 0.08697703 -0.011552498 0.16188878 0.17082265 0.047149964 0.20115739 0.22690383 0.21020143 -0.1671516 -0.21159583 -0.067926414 0.36791545 0.42330647 0.47958198 0.3276422 -0.21012881 -0.2672374 0.4550983 0.38154233 0.585961 0.44437617 0.4103627 0.54276687 0.38794363 0.46722895 0.53189313 0.32799035 0.3066903 0.43541443 -0.23158833 0.47301352 0.44115305 0.44636273 -0.11724973 -0.13822015 -0.14575313 0.2665408 0.3240409 0.3805985 0.45340666 0.38138825 0.47231376 0.5141802 0.5606899 0.60968995 0.6249693 0.27675414 0.6431581 0.6283624 0.17918134 0.16239248 0.6603394 0.63776183 0.7479141 0.6269141 0.7834426 0.7407067 0.6399267 0.53450924 0.4399748 0.28651688 0.46671498 0.5764923 0.79243004 0.63962245 0.5750284 0.11512481 0.2632507 0.3287857 0.6972325 0.6101252 0.13589677 0.07413069 0.20223188 0.08426562 0.6406559 0.5960753 0.50609756 0.068104 0.035359405 0.21936473 0.33656007 0.3014133 0.17592347 0.55538636 0.50515884 0.44642064 0.40913117 0.10710062 0.103790246 0.41331458 0.40621513 0.36714315 0.37899122 0.38473046 0.32575768 0.2963236 0.48966637 0.5170899 0.5263235 0.4846298 0.43219665 0.47639313 0.484635 0.31535196 0.27631432 0.31188852 0.2590157 0.45517614 0.41880444 0.3688139 0.2980493 0.06617639 0.5815378 0.66246 0.7581861 0.79748595 0.5139978 0.4886256 0.78016734 0.7637769 0.5226275 0.7073231 0.46666142 -0.109759994 0.303252 0.16186398 0.09007807 0.02124247 -0.13807607 0.13384306 -0.11199777 0.13083452 -0.30520165 -0.05836646 0.12487498 -0.35269225 0.08344902 0.3183847 0.18075445 -0.26385236 0.2521391 0.49586734 -0.3886308 -0.30706248 -0.28167182 -0.2950347 0.28172004 0.34281492 0.50148135 0.43345627 0.54514587 0.463973 0.57573426 0.5306152 0.41884494 0.38246977 0.43024355 0.4928298 0.41003305 0.26252237 -0.20024887 0.26299676 0.36210665 0.37735796 0.32297578 0.36405063 -0.18289714 0.2651037 -0.06639051 0.19584431 0.22718473 0.11756562 0.24533494 -0.023027282 0.14815578 0.36993772 0.34174988 0.50340164 0.54132384 0.32250768 0.56251657 0.5777713 0.6039796 0.53623885 0.57904613 0.516788 0.32830375 0.5765302 0.4305078 0.33421636 0.34130728 0.27244392 0.5321669 0.39734906 0.3534506 0.11037256 -0.14725526 0.21956164 0.26947868 0.58483183 0.5479251 0.43069065 0.39156204 0.2007084 0.12223107 0.2559802 0.28592542 0.41671622 0.304495 0.2932886 0.2801236 0.28266916 0.20190182 0.3661182 0.35241282 0.27059677 0.24937212 0.35052592 0.30486295 0.29760224 0.47878712 0.5274203 0.5486238 0.5115373 0.39377797 0.4437409 0.29419467 0.2206967 0.053079143 0.4393956 0.38140184 -0.0088477405 -0.09126545 0.31548575 0.55383176 0.65041906 0.7367779 0.45244217 0.68844414 0.7298962 0.4160948 0.6539776 0.38718826 -0.06853067 -0.1335141 -0.21459307 -0.2258455 0.20466489 0.12712434 0.12628874 -0.062779814 -0.059396923 -0.3306651 0.27148765 0.47102273 0.08207315 -0.17685398 0.15570655 0.24412797 0.37078935 0.16068548 0.042213794 -0.32840472 -0.1659104 -0.11178155 0.42749697 0.37053663 0.27407426 0.19351022 -0.33223253 -0.4448498 -0.58794606 0.18765879 0.43668896 -0.5335897 -0.7979319 -0.31935933 -0.60471976 0.2093053 0.28120217 0.61315274 0.35179323 0.64811254 0.3545689 0.60180175 0.5485096 0.34815452 0.562925 0.5181744 0.42590123 0.3848998 0.08364989 0.22175413 -0.36314946 -0.24910367 -0.2219245 -0.124490425 -0.17686857 -0.08416152 -0.106960095 -0.108970664 -0.06835372 0.1317772 0.32886273 0.22831634 0.42690837 0.49585855 0.47811565 0.19787884 0.47137064 0.44031134 0.430797 0.32617152 0.22110586 0.28120497 0.21840228 -0.0021003655 0.10135731 7.2821975e-05 0.061883066 -0.09253906 0.33048514 -0.045329913 0.2183648 0.34198445 0.3715094 0.25654337 0.33265954 0.2222938 0.37105918 0.14476953 0.19679812 0.25665054 0.3204779 0.3739763 0.25487703 0.453074 0.43574 0.38687992 0.31791228 0.4628237 0.3116298 0.2422652 0.5945788 0.64775234 0.48757732 0.42066118 0.634883 0.64637965 0.6582904 0.60717976 0.641395 0.65590763 0.6698768 0.6735803 0.44395205 0.52875483 0.56058 0.46918544 0.27148014 0.16562244 0.35028625 0.2874549 0.17505237 0.10846694 0.12275966 -0.07171642 0.36185962 0.23485008 -0.01348209 -0.05969889 0.17519686 0.49572134 0.27279785 0.031296767 0.1857038 0.5068021 0.3161049 0.24930798 0.30950296 -0.03262981 0.42538923 0.48561072 0.52107275 0.11679074 0.112780295 -0.3817215 0.48743826 0.54532766 0.5667467 0.0760646 0.07535094 -0.3377425 -0.1016457 -0.16534628 -0.2580472 -0.40288728 0.51802194 0.55871487 0.11607091 -0.13410702 -0.22734477 -0.33224368 -0.6430582 -0.40511638 0.38562557 0.533845 0.36757487 0.2221869 -0.3341767 -0.58430314 0.13013247 0.41183943 -0.6195427 -0.5777531 0.17204677 0.592616 0.4800673 -0.84279966 0.203258 0.6573297 0.20749825 0.63244873 0.14135337 0.5771786 0.47616673 -0.12407048 0.21641003 0.4059217 0.30698702 0.23354131 0.28057584 0.41899848 0.30270836 0.22423068 -0.051515333 -0.44876492 -0.39774248 0.020884197 -0.17550546 0.031981297 -0.25597584 -0.18608207 0.063121006 -0.18634112 -0.06192593 -0.030909218 0.07802108 0.25845736 0.20531082 0.23127308 0.3565959 0.43144596 0.32036343 0.5831677 0.509783 0.19986494 0.6201254 0.66205287 0.15108117 0.6811023 0.6518597 0.17567095 0.0008786991 0.19646406 0.08863417 -0.11588599 0.3090283 0.22789966 0.25062686 0.011857562 0.36373758 0.36325097 0.33465344 0.3385737 0.24199194 0.39524537 0.35894638 0.5013333 0.4887833 0.4238243 0.35990578 0.5172713 0.3104425 0.32922348 0.5337157 0.39286152 0.5899931 0.61129725 0.6204907 0.6362947 0.6560843 0.6791823 0.69748694 0.67810404 0.48650968 0.47849518 0.40249515 0.23719123 0.18894912 0.21319512 0.10271287 0.092175595 0.5264555 0.3170393 0.23260361 0.14815132 0.2570733 0.06700452 0.13814048 0.22976057 0.414438 0.49973083 0.54014444 0.56359756 0.58993 0.60019135 0.21140596 0.53752744 0.28828806 0.28717962 0.2718535 0.09581104 0.51344436 0.51565063 0.089397274 0.04723255 0.6447434 0.5811334 0.03951374 0.057702716 0.6450651 0.6101178 0.41530448 0.46775222 0.58949375 0.37823457 0.48056334 0.5164198 0.35340032 -0.19912545 0.14053653 0.42166853 0.51932585 0.3662697 0.34875733 0.08099092 0.480443 0.04312914 -0.47114453 0.37250334 0.43446115 0.048515286 -0.22561544 0.19376378 0.33320385 0.40983304 0.46220127 0.3236094 0.40770286 0.17703658 -0.09292937 -0.10760456 0.54710585 0.050831888 0.684241 0.71667093 0.15083991 0.7226381 0.73015237 0.0159260