# vtk DataFile Version 2.0
Really cool data
ASCII
DATASET POLYDATA
POINTS 2755 float
24.268974 22.16044 -1.4654392
24.257095 22.07908 -0.4949653
24.290419 22.919546 -1.9714206
24.044832 22.669802 -1.2949661
23.951168 22.721838 -0.5680286
24.248058 22.715553 0.046925277
24.246534 23.365496 -2.0125563
23.929964 23.52403 -1.3351895
23.846556 23.593458 -0.52876705
24.08746 23.591797 0.08848724
24.075693 24.108715 -1.3208662
23.995302 24.174963 -0.50886554
24.178114 24.248747 -0.072371185
24.306253 32.141747 -4.2783484
24.372944 31.964539 -3.6480458
24.195993 32.848625 -4.8418674
24.056038 32.681973 -4.296439
23.999897 32.73901 -3.6985943
24.268408 32.718792 -2.9671736
24.202057 33.448765 -5.0337434
23.941845 33.437466 -4.330923
23.955725 33.434315 -3.6094368
24.202303 33.545105 -3.0509818
24.322334 34.563805 -5.3204546
24.050123 34.283302 -4.300407
24.15434 34.214375 -3.7216814
24.341864 33.90616 -2.892872
24.337692 35.240776 -5.083286
24.337786 35.29561 -4.594318
24.296057 34.923164 -4.0077734
24.938309 22.12395 -1.9348172
24.74866 21.80735 -1.2997295
24.668774 21.758291 -0.5925024
24.784359 21.913599 -0.025294244
24.742245 22.726995 -2.244326
24.575188 22.482924 0.2754357
24.975655 22.723005 0.7185275
25.083954 23.425726 -2.5781953
24.545094 23.511894 -2.282785
24.35293 23.474712 0.3512506
24.641087 23.402746 0.65357834
24.641119 24.189732 -2.0220325
24.422626 24.62206 -1.1234329
24.686632 24.290133 0.43596062
24.781143 23.952013 0.74863493
25.033804 25.015306 -1.5929255
24.749908 24.962507 -0.476137
24.880283 24.879274 -0.11786493
25.135569 30.944883 -3.988913
25.012423 31.097069 -3.3756907
25.296043 31.124636 -2.7695355
25.15311 31.677418 -5.1013136
24.723572 31.66439 -4.396531
24.658762 31.54045 -3.3435814
25.049816 31.55289 -2.7544775
25.255701 32.367264 -5.704362
24.566095 32.513542 -5.1259565
24.613941 32.347195 -2.8229685
25.233757 32.592834 -2.1700842
24.919434 33.618507 -5.936979
24.67832 33.372902 -5.5776367
24.641768 33.433887 -2.510705
24.975266 33.448627 -2.242451
24.830935 34.436516 -6.0128965
24.510302 34.4519 -5.622607
24.862295 34.161087 -2.6548843
24.892515 35.272667 -5.916384
24.53594 35.38831 -5.4287863
24.487234 35.603416 -4.501595
24.687998 35.47489 -3.9169698
25.087433 34.943882 -3.091412
25.009771 35.81924 -5.6927347
24.803707 35.967 -5.1964183
24.821375 36.00259 -4.5246916
24.78243 35.83834 -4.1134677
25.606928 21.470366 -0.9543728
25.479675 21.453505 -0.7165798
25.514456 22.04573 -1.9696195
25.419569 21.68801 -1.4114946
25.472496 21.543762 -0.6912415
25.482988 21.813301 0.15864968
25.445704 23.037947 -2.6415381
25.450132 22.571266 -2.411991
26.004217 22.570848 0.9769478
25.61587 23.460783 -2.697647
25.70965 23.559378 1.293951
25.770027 23.927214 -2.6097643
25.247543 24.304344 -2.3450205
25.972548 24.328362 1.3309233
25.681313 25.321108 -1.9677488
25.387331 24.987614 -1.6763602
25.910313 25.462742 0.87067175
25.610258 25.80305 -1.4160016
25.83987 26.214985 0.0016333759
26.171537 25.99355 1.0416678
26.163914 26.820932 -0.87277365
25.74746 30.304132 -3.6883082
26.128569 30.15252 -3.080052
26.228102 31.234978 -5.7028565
25.74236 30.651207 -4.593089
25.424057 30.612656 -3.248389
26.095312 30.925982 -2.2595983
25.489712 31.984314 -5.7508
25.60085 31.422787 -5.414044
26.1607 31.941343 -1.8253601
25.587858 32.33582 -5.9172845
25.780888 32.44163 -1.8674722
25.775482 33.78303 -6.67388
25.479162 33.530025 -6.317363
25.59927 33.574417 -1.8177464
25.880356 34.429447 -6.7135477
25.828861 34.83688 -6.492211
25.804504 34.106472 -2.0259106
25.33746 35.339573 -6.1456723
25.480228 35.05612 -2.9878516
26.383236 35.848427 0.8627524
26.375359 35.860588 1.323412
25.612446 35.8311 -5.9929185
25.249464 36.223984 -4.405842
25.33271 35.752407 -3.7376888
26.309504 36.293594 0.9053975
26.31123 36.48889 1.5044242
26.376745 36.431683 2.1173332
26.443531 36.900368 0.92399526
26.390148 37.03138 1.2926351
26.309595 22.207615 -1.9486814
26.108353 21.739594 -1.3225797
26.039448 21.58529 -0.63035727
26.31969 21.915684 0.36620998
26.365917 22.15231 0.86965173
26.26713 23.031622 -2.468026
26.417582 24.207819 1.598288
26.409397 25.339523 -2.3339267
26.876472 25.50865 1.8634162
26.684086 26.483814 1.434536
27.001497 26.484398 1.813567
26.475924 27.357464 -0.212762
26.741222 27.653307 0.3483011
26.80703 27.258806 1.1775764
27.36048 27.519093 1.8461261
27.176134 28.260475 -1.3264748
26.67873 27.890375 0.02770172
26.783432 30.139664 -4.9955063
27.097319 29.391594 -4.4326267
26.39925 29.966724 -3.277633
26.515593 30.212587 -2.563112
27.387653 29.803413 -1.1968133
27.383224 30.598667 -6.919028
27.220531 30.38448 -5.9652734
26.588602 30.406248 -2.002565
27.380022 31.644352 -7.875601
26.449793 31.532492 -6.0239053
27.188091 31.426083 -0.75569165
27.125332 32.636272 -7.857679
26.794584 32.78009 -7.1779265
26.648787 32.41155 -6.5777674
26.379164 32.19208 -1.6683047
27.416302 33.18896 1.590944
27.226862 33.357124 -7.854835
27.084326 33.049572 -7.3219595
27.034872 34.04685 0.39604834
27.182104 33.755272 1.2561275
27.281027 33.759853 1.9890718
26.30856 34.791557 -6.7540464
26.230045 33.94851 -1.9209394
27.345783 34.901333 0.014950722
26.667225 35.13418 0.58469045
26.714561 35.15681 1.682983
27.043335 34.756596 2.2172754
26.63914 35.3628 -3.1161635
26.73838 35.344746 0.18784766
26.47335 35.694656 0.7105093
26.548714 35.43059 1.5137564
26.686272 35.70187 2.4862082
27.082834 35.66478 2.8875527
26.413773 36.00571 -3.5856678
26.681177 35.725437 -3.220924
26.720974 36.46044 0.10132134
26.548136 36.327393 0.29833648
26.584106 36.428017 2.4705453
26.914268 36.460262 2.8531022
27.024332 36.895985 -4.5731096
27.295195 36.876595 -3.547129
27.171711 37.24127 0.15963583
26.768578 37.303104 0.6572462
26.636412 37.38483 1.5906986
26.7215 37.197628 2.183814
27.042154 37.034893 2.7500262
27.424543 38.45367 -8.330234
27.111683 38.69698 -6.424876
26.914862 38.754875 -5.5263925
26.864841 39.0403 -5.0057583
27.191662 37.822712 0.86492896
27.086674 37.866642 1.5743083
27.093779 37.799557 1.9959903
27.282864 39.339134 -8.254514
27.144379 39.28981 -7.513148
26.84805 39.51631 -6.312727
26.7797 39.43257 -5.483535
26.97075 39.477505 -4.855013
27.298595 40.05164 -7.215077
27.188768 40.23939 -6.406924
27.112024 40.22021 -5.603178
27.094233 40.034008 -4.9873238
27.174807 21.959301 0.65993553
27.317846 22.723375 -1.9181374
28.25629 22.208584 2.333604
27.375345 23.328138 1.8831383
27.69668 24.34638 2.1154795
27.350277 25.214443 -2.6342943
28.04151 25.79148 -2.4377978
28.164204 25.874645 2.531601
28.318916 27.110792 -5.363463
27.431383 26.551765 -2.2257493
27.493776 26.29187 2.1324646
28.135626 27.721281 -5.593815
27.84814 27.984829 -4.5215592
28.282087 28.749073 -6.6534247
27.759197 28.481663 -5.168878
27.634304 28.61435 -3.3546898
27.519312 28.62639 0.7554361
27.462467 28.366552 1.138109
28.312046 28.572483 2.3831747
28.106419 28.973484 4.8332133
28.15253 29.062607 6.409533
28.284306 30.08369 -8.132244
27.544628 29.142555 0.29462758
28.462923 28.981936 3.0595863
28.054544 29.523222 4.7202163
27.946245 29.563208 5.5161605
27.975037 29.673744 6.2747774
28.133759 29.808529 6.8839602
27.962835 30.619284 -8.184646
27.63352 30.50976 -7.688382
28.004175 30.982338 0.5921495
28.104824 30.3956 4.7773194
27.949642 30.41389 5.486814
28.068058 30.275831 6.3742476
28.205694 30.051365 6.8319917
28.013765 31.634909 -9.035387
27.651443 31.594177 -8.556029
27.86654 31.49491 0.19352067
27.94832 31.571259 1.4737886
28.096582 31.409868 1.9651074
28.227856 31.047197 5.3294334
28.265974 30.896063 6.1752515
28.059446 32.415714 -9.091521
27.675077 32.398872 -8.667206
27.72004 32.632515 0.6497799
27.795046 32.60045 1.5864207
27.727665 33.075523 2.090394
28.188915 33.316753 -8.844204
27.685825 33.54008 -8.151709
27.478163 33.229404 1.6894832
28.032093 33.24656 2.76985
28.25783 34.37477 -7.9564304
27.684246 34.318607 2.7706134
27.284864 34.94107 -6.950126
27.649357 37.160477 -7.4912763
27.434422 36.365265 3.1711617
27.818447 37.918842 -9.104123
27.720993 37.327667 -3.3642125
27.397205 37.244247 -0.048487693
27.27961 37.66395 2.5417233
27.544207 37.09619 2.9480543
28.000912 38.609043 -11.187376
27.820908 38.604572 -10.510735
27.543503 38.32475 -8.659131
27.874462 38.252842 -3.948413
27.903685 38.243095 1.0181062
27.564785 38.185017 1.4616864
27.57354 37.91814 2.1634674
27.697916 37.701057 2.6894937
28.288303 39.873104 -15.1148
28.05766 39.985386 -14.394691
28.206934 39.911346 -12.293411
27.702675 39.168716 -9.951101
27.8281 39.543873 -9.3437195
27.535004 39.740227 -8.711609
27.336094 39.560677 -4.5033445
27.40613 39.30454 -4.3766613
28.236963 40.462093 -15.378685
28.010548 40.445946 -14.3979645
28.033676 40.54439 -13.80618
28.107414 40.305744 -12.639967
28.16802 40.450367 -11.409419
28.105772 40.510567 -10.644073
27.615866 40.18282 -8.349024
27.44932 40.176144 -7.547573
27.5644 40.511967 -6.504217
27.398186 40.47707 -5.344649
27.640846 40.296127 -4.7819004
28.18051 41.030174 -15.270959
28.112103 41.252014 -14.799583
28.269367 41.434578 -13.63916
28.297783 41.360336 -12.541606
28.024925 40.688908 -8.174464
28.011705 40.73021 -7.4465833
27.778725 40.768394 -6.394326
27.79535 40.80881 -5.534314
27.855167 40.629856 -4.9082904
28.364607 41.94105 -14.603068
28.868698 20.791508 1.5662516
28.797865 20.962181 2.232956
28.742332 21.565403 0.26368827
28.663403 21.270536 2.5851736
28.976244 21.957094 3.7130759
29.186398 21.873333 4.0084014
28.398903 23.146343 -1.3741945
28.79362 22.473204 3.2886212
29.24084 22.462952 4.4135313
28.355143 23.666868 -1.9783852
28.639141 23.522463 -1.2892193
28.995731 23.527155 3.5273364
29.168453 23.236185 4.091041
28.488668 24.272682 -2.222086
29.277546 24.216125 3.581595
29.196348 25.767347 -5.9777765
28.89659 26.213423 -5.309501
29.035751 25.131084 3.2577577
29.225452 26.442863 -7.489807
29.027664 26.272026 -6.4327264
28.709915 26.604017 -5.6106563
28.420382 27.06864 -4.265408
28.84333 26.337353 -3.4227026
29.208525 26.565624 3.2467897
29.073442 27.099384 6.349218
29.37118 27.528887 -7.784081
29.047087 27.811283 -7.2990484
28.525024 27.351576 -6.4088197
[...]
POINT_DATA 2755
SCALARS features_00 float 1
LOOKUP_TABLE default
0.97547996 0.9624151 0.9249325 1.0 0.98109055 0.8756296 0.8865516 0.95124763 0.8940975 0.795861 0.85795677 0.81699 0.7470699 0.59790874 0.61431384 0.57968825 0.6428663 0.6717916 0.6303028 0.6028186 0.68188226 0.6830839 0.6415831 0.65070873 0.68209326 0.65910697 0.6123544 0.67908776 0.6661127 0.6382871 0.889357 0.9067291 0.9017394 0.8538646 0.88142884 0.8370217 0.7358966 0.79836524 0.8295566 0.7544862 0.7004986 0.75702614 0.7649518 0.6264411 0.6210667 0.6573552 0.66204274 0.61514723 0.4936335 0.5066921 0.4597299 0.42292926 0.53921485 0.56299317 0.50394595 0.35570782 0.49600014 0.5865649 0.50186837 0.4453345 0.4835742 0.57227117 0.533334 0.52992386 0.5998132 0.55480564 0.6021265 0.67024803 0.6485556 0.58074594 0.5185015 0.6435648 0.6666392 0.60983264 0.571351 0.8206434 0.8154174 0.8408684 0.84506273 0.8152636 0.7581916 0.8116013 0.83477545 0.6307416 0.7552316 0.52745974 0.67679554 0.6886941 0.37420475 0.54578996 0.6233463 0.342588 0.5102873 0.32144314 0.27825004 0.2844034 0.40426677 0.36519998 0.21776341 0.40186778 0.4418044 0.36108634 0.3121691 0.32467517 0.36335117 0.28796306 0.44208068 0.29112762 0.3350376 0.4829147 0.35399207 0.42851913 0.4783104 0.54150987 0.46760914 0.584587 0.60532403 0.5391086 0.5266908 0.46116787 0.642558 0.7014385 0.73406255 0.70700485 0.7370597 0.7653925 0.76226807 0.7404715 0.6640526 0.61536455 0.7379601 0.30954924 0.47021133 0.21375562 0.22295156 0.19719544 0.19541043 0.19170706 0.1985637 0.1261723 0.053666353 0.16147058 0.20499244 0.12273653 0.32972923 0.30827922 -0.18929543 0.119288765 0.0863635 0.24879315 0.26796833 0.17756692 -0.11497991 0.2452265 0.17510974 0.15960285 0.33073074 0.20599525 0.21359277 0.1903799 0.2927618 0.27804816 0.30886003 0.32089743 0.43192142 0.3784886 0.4711245 0.49871445 0.45785964 0.30061936 0.47388065 0.5569818 0.54040134 0.66005707 0.6651664 0.2580701 0.24477947 0.6129892 0.6130388 0.747455 0.7408708 0.065464504 -0.0004976131 0.6272087 0.7065763 0.76289874 0.76525545 0.7412441 0.31671435 0.5031579 0.51291025 0.4977161 0.68310237 0.7397797 0.745928 0.35922062 0.41084674 0.5364566 0.56500274 0.52450454 0.42427886 0.49816442 0.5509949 0.5516465 0.47940856 0.5092243 0.29274088 0.22569007 0.094016016 0.40322664 0.19498156 -0.02379354 0.18125078 0.28006282 0.14687765 0.1704208 0.07278525 0.10580227 0.08515279 -0.014112592 0.07800186 0.08835159 -0.06895231 0.33151624 0.45472574 0.22678357 -0.00424625 -0.09985764 0.37705928 0.4794951 0.49060506 0.46184587 0.2888949 0.21094537 -0.1724688 0.47982106 0.51653886 0.4950248 0.46519393 0.3804145 0.33995754 -0.15199614 -0.042149827 -0.03467977 0.49693024 0.48130608 0.36755183 0.33019617 0.04692744 0.10380631 0.20357132 0.30039507 0.23433274 0.21679208 0.27481484 0.047079638 0.42167747 0.13052168 0.15422025 0.6807542 0.2000804 -0.06251708 0.5595745 0.72797906 0.687858 0.18340376 0.21485369 0.28127012 0.041537154 0.62927836 0.7029569 0.71294475 0.6828072 0.46145648 0.4314639 0.23923194 0.22860119 0.25805983 0.32409996 0.46455428 0.4036945 0.46555823 0.4299256 0.37894544 0.26836902 0.19013637 0.15429565 0.3497106 0.39804357 0.46438378 0.5392447 0.51091117 0.45734498 0.43155164 0.32733238 0.22683412 0.3265772 0.36328444 0.44718677 0.49564874 0.5009847 0.36510134 0.4743378 0.44463608 0.41192418 0.43353686 0.4095096 0.41547337 0.16351375 0.3297341 0.33535314 0.19553813 0.1332849 0.12719254 0.20579088 0.19311553 -0.02991074 0.3453304 0.22745247 -0.19995475 0.44186804 0.3587149 0.24031502 0.095006056 -0.02641784 -0.2304017 0.14387989 0.282732 0.24510384 0.26933202 0.17905214 0.30804855 0.080441535 -0.09982528 0.12065436 0.15452401 0.3970304 0.33563277 0.29217678 0.43999523 0.3935061 0.352858 0.4500457 0.42042017 0.4063918 0.3883443 0.35822865 0.32355568 0.1933552 0.42911273 0.40372863 -0.2132375 0.50961024 0.04007662 0.06764437 -0.10337533 -0.13145712 0.010896891 0.59863913 0.44424382 0.2643561 -0.048152164 0.10948653 0.50547075 0.58878726 0.6362879 0.44396257 0.4551406 0.31502163 0.45221117 0.46266752 0.40964365 0.19909118 0.19857377 0.3223826 0.33305585 0.36521095 0.4344977 0.3840105 0.190803 0.21430048 0.6121329 0.4999032 0.45428264 0.19457479 0.24480402 0.2698629 0.28554124 0.64386547 0.6168603 0.5286596 0.451883 0.23830234 0.2617488 0.2804643 0.61119556 0.537559 0.5334251 0.5082723 0.4720515 0.506686 0.5136852 0.48870724 0.45623523 0.4570595 0.43866396 0.43483067 0.19354504 0.3146513 0.19065562 0.4993199 0.4483952 0.43331665 0.38051462 -0.29364634 -0.15957648 0.023405908 0.43150336 0.50559646 0.5237518 0.46072665 0.45683473 0.42050588 0.3618635 0.2234754 0.019206816 -0.2498236 -0.20244999 -0.107313976 -0.061672643 0.22088505 0.406474 0.47604996 0.4931986 0.31376612 0.4176662 0.15165386 0.22145239 0.4506759 0.27568868 0.058492195 0.17380765 0.1046716 0.2905468 0.1038872 0.19575676 0.2551732 0.04952282 0.17996852 0.054100767 0.20667914 0.20014048 0.22463734 0.33416682 0.11556928 0.2745844 -0.0016665347 0.21189272 0.16436636 0.21678704 0.45675606 0.18766694 0.4045971 0.35575178 0.26943773 -0.040531956 -0.20665494 -0.33939284 0.32599252 0.17359272 0.1874353 0.24248219 0.5134558 0.0027214028 0.42878622 0.49349523 0.45640987 -0.24923356 -0.14805007 -0.07971398 0.34603426 0.45621645 0.44368136 -0.16294792 0.094533056 0.4017832 0.4224611 0.096672915 0.008898478 0.19788876 0.1956729 -0.028307632 -0.08160817 0.124322355 0.29949772 0.17242815 0.2139119 0.21188447 0.20052987 0.53120494 0.59281266 0.12851124 0.6667845 0.66931224 0.24160576 0.2831391 0.2940815 0.32318234 0.6546836 0.6202977 0.5597221 0.41783816 0.3197052 0.31160027 0.35736603 0.59128815 0.55587494 0.5709879 0.5177219 0.47461054 0.5812358 0.596791 0.44007722 0.40741378 0.5170094 0.34751597 0.35558486 0.16318597 0.39234215 0.54403377 0.39389324 0.15358034 0.02411406 0.019877609 0.44704533 0.5257438 0.56557816 0.58399 0.4141072 0.42220837 0.41691965 0.408585 0.31692705 0.12497512 -0.07028868 0.040851165 0.15962267 0.5375387 0.5463244 0.3769618 0.42139393 0.5186209 0.5044281 0.25939766 0.45869562 0.35385674 -0.03409639 -0.15601033 -0.04505477 0.16789876 0.17063674 0.10693048 0.019990921 0.12089297 0.16891135 0.14739025 0.15073188 -0.11883584 -0.23657423 0.53808606 0.5535359 0.4572671 0.34142604 -0.20679972 -0.2201406 0.537214 0.6018754 0.59084713 0.47170344 0.4799741 -0.12777963 0.40563995 0.57897747 0.65011203 0.6552087 0.4348909 0.4317026 -0.17999123 0.04206101 0.00090520084 0.40908262 0.59413195 0.68579996 0.69373155 0.49551925 0.350944 0.15963759 0.087485 0.1769919 0.6467299 0.69489896 0.7034708 0.5480342 0.48938608 0.18919031 0.21621458 0.57184935 0.54623425 0.21144871 0.21949366 0.53145206 0.044887584 0.17441098 0.5314835 0.0051075723 -0.019753404 -0.030299552 0.15351176 0.19582763 0.20917913 0.20134813 0.11783568 0.68340445 0.5911271 0.034242347 -0.05412052 0.171586 0.19318281 0.15886267 0.6788746 0.6563568 0.22097649 0.6553582 0.36667672 0.61436725 0.6368799 0.35662198 0.3831998 0.42093372 0.43010932 0.6122642 0.54559225 0.4644454 0.4058555 0.41605753 0.41977286 0.4564765 0.61396366 0.59597874 0.5445235 0.429138 0.6071525 0.39203447 0.32349586 0.30639642 0.2944645 0.5634852 0.21251741 0.54504144 0.29966184 0.25705716 0.46985158 0.57121503 0.6181387 0.6312267 0.34307748 0.3740672 0.3829877 0.26043174 0.14842188 0.6056285 0.62231004 0.4046758 0.35579458 0.35167393 0.47484392 0.48550546 0.42780828 0.39637607 0.40193376 0.17945537 0.09004649 0.30199668 0.0570063 0.5142175 0.11193221 -0.06458413 0.37260956 0.16195723 0.3015359 0.05793763 0.3190104 -0.19755429 -0.09411752 0.41382927 0.480151 0.533559 0.3910596 -0.22538918 -0.1709902 -0.029294644 0.575854 0.60642374 0.47324586 0.49644312 -0.09291799 -0.068096034 0.19051665 0.6365075 0.6270236 0.0069811568 -0.02438555 0.6797244 0.6426604 0.5242097 0.507008 0.4051081 0.1041187 0.07018296 0.5393198 0.5731358 0.7024648 0.6892292 0.64753497 0.5825691 0.555748 0.21959883 0.51515365 0.6364442 0.68907654 0.69093144 0.587982 0.21100354 0.20813252 0.5907053 0.1477646 0.1954305 0.1814725 0.49179572 0.050377477 0.07623604 0.10193929 0.16635048 0.059564188 0.1339 0.23257437 0.29755905 0.7065253 -0.13250042 -0.20782942 -0.01809669 0.11807123 0.14404508 0.16665117 0.14174235 0.10105625 0.2338425 0.42687958 0.47635207 0.7151731 0.27727884 0.07627994 0.12851429 0.12083042 0.5005044 0.57233465 0.6778828 0.26596877 0.09116604 0.6047229 0.5656061 0.4753332 0.39908248 0.5434028 0.54013705 0.5261468 0.45699367 0.44005406 0.4695151 0.5018765 0.5077403 0.4866525 0.60362566 0.5629263 0.4589538 0.60885775 0.59782195 0.3983757 0.28932413 0.25463748 0.26769266 0.2635237 0.52030236 0.27112344 0.24410203 0.48102167 0.56309843 0.29559007 0.21136035 0.34908915 0.55586493 0.609663 0.62044233 0.5575017 0.4918229 0.40426037 0.31306708 0.21079904 0.28624573 0.607818 0.62781316 0.5068821 0.38847023 0.38408732 0.19856885 0.11503833 0.49154687 0.59846056 0.59050286 0.3409686 0.5499824 0.4047591 0.4168694 0.6019387 0.6665637 0.17473923 0.6364031 0.7007736 0.57712364 0.7201638 0.2804322 0.15636823 0.6210564 0.1757032 0.3461954 0.45553362 0.5032318 0.4066028 0.52684146 0.50435835 0.5485287 0.38748217 0.5936928 0.21650583 0.64180756 0.61256576 0.53845835 0.49529275 0.35965005 0.14358497 0.42557204 0.5779843 0.6731231 0.6741905 0.5585515 0.53785276 0.17339143 0.61460745 0.5212485 0.1703349 0.15128785 0.48340303 0.35881165 0.2426924 0.66401446 0.52974886 0.2785984 0.41745067 0.41743648 0.7161944 0.70299566 0.56350505 0.5985329 0.6211584 0.7173812 0.7037874 0.11488322 -0.23067477 0.02323541 0.08542965 0.43588457 0.54218197 0.63399494 0.68562174 0.6628282 0.4256017 0.24351917 -0.01930099 0.0463318 0.0983362 0.5482243 0.6414738 0.68519634 0.7138301 0.5720277 0.50159484 0.39073712 0.47222835 0.40296626 0.264556 0.14566416 0.48790732 0.51335776 0.49665946 0.5330503 0.5383523 0.520413 0.55288994 0.6242095 0.5782635 0.5117693 0.41199404 0.5115604 0.5367837 0.54021335 0.52657354 0.63306004 0.60673106 0.539764 0.50696915 0.18410467 0.23303166 0.25224876 0.23353237 0.5644384 0.47702008 0.2553308 0.215749 0.17070743 0.24346322 0.49697566 0.25879508 0.2147481 0.35541162 0.53656006 0.54204226 0.5799626 0.664245 0.6404615 0.5946964 0.5304338 0.20097372 0.24281812 0.5620768 0.67439705 0.6807089 0.36001825 0.032447472 0.15706998 0.44068366 0.6363118 0.6456188 -0.10860453 0.22674623 0.5979825 0.5829265 0.38095126 0.5874704 0.5481247 0.42327857 0.63701415 0.6934495 0.733122 0.1983148 0.7513782 0.2418999 0.5864981 0.6691166 0.3519988 0.44353893 0.3493029 0.10816933 0.31950772 0.2758628 0.44201082 0.3333033 0.44883657 0.15140301 0.49950504 0.50126255 0.43784106 0.6042843 0.5472207 0.47839692 0.45027333 -0.070880264 0.29067463 0.23844765 0.05868724 -0.1332728 0.32452613 0.5866379 0.42784968 -0.19721876 0.39376032 0.6721192 0.48039663 0.4130555 0.6313259 0.6845249 -0.2856628 0.7305434 0.7235042 0.6392617 0.33285233 0.15304251 0.31416512 0.18493363 0.14416254 0.5116048 0.6510402 0.7209108 0.7436307 0.5460726 0.49864727 0.47193682 0.50072795 0.42796496 0.40087602 0.1211804 0.22446534 0.35085857 0.65402067 0.7169554 0.4924652 0.49567667 0.51272285 0.5362493 0.5292438 0.5096305 0.45024705 0.28459442 0.2503082 0.33073553 0.5087669 0.5205616 0.5698778 0.60716987 0.5120134 0.442124 0.377472 0.60984397 0.5869957 0.53768015 0.47971326 0.17196737 0.2236776 0.24044947 0.23464277 0.2182577 0.17871623 0.25471514 0.12881374 0.064434215 0.46806762 0.38538462 0.7015165 0.69247806 0.65244424 0.20114774 0.39193833 0.39275813 0.6915821 0.68893266 0.09799877 0.4174689 0.6359701 0.6613728 0.22481048 0.60792583 0.6122851 0.32625264 0.5714999 0.52747434 0.6496826 0.6818747 0.34693015 0.75839186 0.18174654 0.780463 0.29985303 0.71344197 0.31731153 0.26400986 0.5716675 0.40048116 0.36262095 0.2510299 -0.12224284 0.23341586 -0.0844064 -0.15764435 0.22360785 -0.028456606 0.34067798 0.13798693 -0.06839289 -0.09082824 0.12321378 0.45497105 0.07115177 0.14946526 0.05951169 0.25568506 0.23350137 0.5209242 0.6516624 0.61571854 0.5358493 0.3377086 0.6479331 0.63216954 0.5390476 0.48186433 0.25526357 0.71697736 0.71033347 0.59308136 0.56501615 0.5132837 0.38884473 0.16827531 0.1595536 0.71779954 0.7378142 0.53069216 0.5147079 0.5000373 0.430395 0.32635328 0.33959165 0.6447792 0.69567543 0.4998809 0.50214195 0.518624 0.49808687 0.45422488 0.4225771 0.25897005 0.36666727 0.3938078 0.41483086 0.49432677 0.49970198 0.36740482 0.33602616 0.5487088 0.5432457 0.53257585 0.45794368 0.33315662 0.30954188 0.25910947 0.23849651 0.23836856 0.30093977 0.23446894 0.22809435 0.22528493 0.14584844 0.12692066 0.22562726 0.3350718 0.37131715 0.6683346 0.60372865 0.58092654 0.23995465 0.27135652 0.33407772 0.66779006 0.64998543 0.5906204 0.5130956 0.48136908 0.020897329 0.17459951 0.28367794 0.31004882 0.6227788 0.5963173 -0.38334897 -0.40074232 0.13661054 0.5790848 0.50525516 0.48437494 0.53648466 0.51085234 0.6396895 0.6887455 0.70761216 0.75727624 0.26030505 0.12942833 0.7098373 0.7721217 0.34595323 0.5885551 0.64279824 0.6868359 0.408369 0.36387596 0.40801513 0.33951283 0.005602509 0.070241004 0.07971723 0.13972494 0.10581358 0.18179853 0.17219174 0.2315335 0.16784802 0.16203646 0.35664797 0.2396192 0.36986372 0.46609682 0.50816923 0.48099235 0.3833909 0.4964499 0.5243488 0.3473941 0.05324035 0.10131492 -0.037919432 -0.116678 0.640275 0.6692175 0.466364 0.14850055 0.11844954 -0.1407707 -0.011329688 0.6053274 0.67719996 0.28855833 0.3295433 0.2922034 0.34817624 0.36424595 0.3619128 0.41713548 0.36543858 0.12871593 0.44693607 0.34669042 0.43931583 0.28225684 0.43913025 0.35722965 0.3329708 0.2962334 0.22078575 0.2514967 0.23283066 0.23683292 0.26671547 0.2591672 0.23194374 0.17795795 0.22526038 0.43250644 0.1709895 0.081082806 0.16324063 0.21115586 0.5421791 0.4977425 0.31933156 0.3324719 0.5202584 0.48647758 0.3498913 0.456587 0.3852591 0.2683045 0.48532674 0.60870457 0.68079764 0.29200608 0.52813834 0.35503238 0.40163195 0.3999459 0.38228837 0.30135775 0.3861391 0.372966 0.24024469 0.2875442 -0.12313897 0.0655452 0.0114027895 0.22535075 0.10936415 0.24492532 0.27329493 0.28422505 -0.07243451 -0.12015647 0.39533702 -0.100256175 0.32436785 0.5110751 0.48146063 0.16764902 0.23641458 0.49448392 0.51463103 0.09138172 0.22626826 0.4072376 0.5121136 -0.050789088 0.4141724 -0.06748997 -0.021293782 0.20506221 0.14588396 0.05426606 -0.026743904 0.10465846 0.26234847 0.32764086 0.24965368 -0.042770922 0.30657876 0.31349283 0.342812 0.31002223 0.36736488 0.29118818 0.25807863 0.23386814 0.27203807 0.39934874 0.3448059 -0.028101891 0.26795176 0.3044681 0.4349753 0.40951842 0.33445406 0.30961686 0.22693396 0.17927423 0.10617275 0.2386303 0.3302148 0.15032664 0.06493715 0.044804476 0.109184496 0.14240152 0.15688834 0.08167935 0.25812024 0.19720575 0.3318326 -0.178509 -0.10247082 0.39269966 0.38695562 0.19396994 0.389727 0.37195817 0.34395283 0.34395954 0.336015 0.21253921 0.24876162 0.17073262 0.11847985 0.06382585 0.15793507 0.3038866 0.29871976 0.0018739104 -0.07550677 -0.07616633 0.35098565 0.13396803 0.101781845 -0.071679756 -0.02992316 0.44306546 0.4066925 0.14587712 0.08739761 -0.007979639 0.4447055 0.51929945 0.49544984 0.15926023 0.5109274 0.5260881 0.5224575 0.21803045 0.13267109 0.06414084 -0.0015495867 0.03680085 -0.0145825595 0.21399581 0.21349856 0.15796065 0.2799595 0.31893224 0.34192002 0.34728026 0.26618508 0.41134363 0.23249775 0.2894227 0.24338955 0.46145168 0.4204714 0.39819592 0.2960719 0.27239275 0.22115335 0.17907913 0.16958062 0.26772806 0.29942825 0.5121245 0.5108863 0.4676398 0.24306491 0.27600765 0.48408657 0.15765306 0.298183 0.06598742 0.105854504 0.16059636 0.12178075 0.15690914 0.17315626 0.131779 0.16386542 0.23618543 0.29623243 0.24701336 -0.054249533 0.3429582 0.24596551 0.11485122 0.29522452 0.3218721 0.3318399 0.31220922 0.27497235 -0.06077855 0.20318276 -0.032875456 0.1639197 0.1224118 0.17039384 0.10178492 0.11261143 0.23618399 0.30226448 -0.0026164427 0.42657834 0.044948064 0.5006489 0.26039922 -0.3600572 0.096739456 0.09515723 0.41401353 0.5141931 0.5151734 0.50461936 -0.1228347 0.09567862 0.13061719 0.31068608 0.2736197 -0.20577559 0.26082492 0.17518756 -0.19632024 0.14480318 0.15282516 -0.07536547 -0.1631292 0.22820435 0.2109657 0.17128679 0.27253562 0.3074256 0.36055842 0.26114103 0.31133413 0.3026419 0.47435558 0.4584381 0.48624188 0.4669702 0.41973418 0.24194518 0.5401778 0.5359659 0.49862796 0.3950457 0.28373587 0.13939768 0.015246332 0.10916725 0.116407685 0.5114653 0.53444886 -0.006374538 0.44807726 -0.20373456 -0.032431655 0.33270612 0.36592412 -0.53299457 -0.30171958 -0.035467148 0.080938816 0.17121841 0.20028543 0.19657058 0.22621536 0.20063804 0.16049215 0.2313794 0.25515428 0.31932223 0.29510072 0.3474701 0.18923305 0.23386274 0.19028886 0.07346188 0.068049036 0.16088879 0.128051 0.20909235 0.14369269 0.29151386 0.14127643 0.3836219 0.114075795 0.4287634 0.215469 0.42941105 0.448462 0.256249 0.4366239 0.3942895 0.44757974 0.3091935 0.31078866 0.085564464 0.12076342 0.17963637 0.2896273 0.081909254 0.24744949 -0.04300213 -0.0817548 0.26550615 0.25191486 0.09316813 0.0048787147 0.01737659 -0.014262877 0.3156323 0.37788123 0.33761925 0.04340794 0.12663195 0.29303896 0.25122866 0.21905567 0.15700707 0.08219282 0.21233863 0.28298238 0.49599037 0.4811504 0.36030236 0.32440045 0.47921225 0.49303365 0.27808627 0.5364172 0.52720094 0.455058 0.39699322 0.27513096 0.22304425 0.49976447 0.5304386 0.06714004 0.4583807 -0.5062139 0.33165753 0.35887468 -0.4993366 -0.31311682 0.26636413 0.2884591 -0.6502649 -0.08447084 0.16398999 0.059981044 0.2115173 0.2344199 0.20328072 0.20724276 -0.029646838 0.34906492 0.42107534 0.1584368 0.44024712 0.14846286 0.35276848 0.13583219 0.18850291 0.16732144 0.19965434 0.18808258 0.34018052 0.4292463 0.39773548 0.1256524 0.44113243 0.19544217 0.3842434 0.41372436 0.2708807 0.23271134 0.16076598 0.35889056 0.28298435 0.22954215 0.2826383 0.20171139 -0.13301429 -0.014409531 0.11376285 0.22809081 0.2881589 0.30979124 -0.042071402 -0.16229069 -0.15862173 0.27073383 0.40025437 -0.030118812 -0.057891723 0.39730236 0.11303413 0.01029934 0.038370907 0.44637898 0.4970249 0.14494422 0.18760891 0.47220457 0.4207937 0.25324887 0.13755679 0.20443031 0.26108593 0.16885906 0.15834713 0.13138932 0.16854143 0.47860456 0.46391895 0.40124816 0.33276975 0.2748621 0.4537124 0.47278798 0.4595927 0.39642748 0.29870504 0.27381173 0.21815528 0.3119161 0.3353453 0.39028424 0.481527 0.4007706 0.21935958 0.2558578 0.30718422 0.50925606 0.54031134 0.50732744 0.45590064 0.25247937 0.093276516 0.0475832 0.013642207 0.16547805 0.52178663 0.43342784 0.4715774 0.41859543 0.51924795 0.60177743 0.32566318 0.2338664 -0.45052534 0.1503992 -0.5145395 -0.09537923 0.16361211 0.064003915 -0.0036615804 -0.0442077 0.27474445 0.26389682 0.18938032 0.39142466 0.4216768 0.41655415 0.47202355 0.4920693 0.49149704 0.5163412 0.3730201 0.3878658 0.49875242 0.48413318 0.24380252 0.3040743 0.028094176 0.26629135 0.3186366 0.20410985 0.27524137 0.31034186 0.3713437 0.42591172 0.44314742 0.21728963 0.21513739 0.3805301 0.42269847 0.21790916 0.20886311 -0.10754429 0.24576306 0.32087955 0.20834649 0.24591449 0.30112946 0.28282428 0.4013846 -0.1447028 0.23998907 0.30512583 0.4813646 0.09781418 0.24548276 0.49017608 0.508744 0.18444887 0.3510972 0.51978034 0.57404053 0.528658 0.14663136 0.20792359 0.26158413 0.56058156 0.5304506 0.5110277 0.43289378 0.20131889 0.19957586 0.40886372 0.17368719 0.14890933 0.17658576 0.1925841 0.19778669 0.33490908 0.3707441 0.41389626 0.40830404 0.450302 0.42008317 0.4321941 0.40702298 0.37191063 0.32066327 0.29937312 0.29113826 0.30653927 0.36588085 0.42161632 0.47266674 0.35031343 0.34410027 0.52387637 0.55428874 0.022662275 0.6245703 0.3557846 0.05476609 0.61500967 0.6328435 0.58265996 0.61854684 0.1981228 0.4603879 0.5177636 0.1194223 0.0592188 0.050500724 0.14859298 0.300997 0.389816 0.26363972 0.210798 0.41663682 0.36814263 0.25321198 0.48108506 0.5099833 0.46746927 0.4065706 0.3148499 0.5499523 0.47007918 0.44367248 0.34950304 0.5148664 0.43509817 0.43876284 0.49305946 0.21770078 0.23774853 0.32791692 0.11563827 0.32585645 0.29568386 0.343