# vtk DataFile Version 2.0
Really cool data
ASCII
DATASET POLYDATA
POINTS 7806 float
28.247194 56.051258 3.72389
28.240639 56.018177 4.3332567
28.329565 56.166245 4.861218
28.320116 56.687664 3.0278058
28.110548 56.623665 3.6307464
28.027035 56.615036 4.4202886
28.258959 56.60984 5.1074924
28.392567 57.35342 2.9150145
28.08747 57.299614 3.7142754
28.044178 57.210648 4.45457
28.11118 57.220856 5.0364428
28.29418 57.97954 3.7409515
28.342783 58.019638 4.6143475
28.453161 58.049778 5.3417172
28.97436 55.302773 3.6995072
29.139011 55.211254 4.3755646
28.76797 55.983242 2.8841424
28.669504 55.71533 3.441465
28.468943 55.740135 4.2819424
28.674223 56.010536 5.1713967
28.995392 56.692142 2.2718287
28.658737 56.548355 2.5891244
28.60397 56.56561 5.572812
28.707607 57.00194 6.0608134
29.220955 57.161175 7.1208982
28.951313 57.097366 2.2726786
28.705002 57.507454 2.6913066
28.678108 57.66168 6.2766056
29.084164 57.64362 7.2110248
28.857794 58.26045 2.8979495
28.522223 58.294773 3.5630271
28.494946 58.622375 4.823765
28.567434 58.334404 5.209532
28.77711 58.135353 6.495987
29.164667 58.213165 7.29367
29.321474 59.57639 3.1549578
29.054134 59.428646 3.6756077
28.856127 59.315796 4.5490575
28.973242 59.116966 5.2844872
29.11951 58.967224 6.322877
29.73965 55.138115 3.1692815
29.703878 54.91543 3.5267944
29.70747 54.845406 4.318563
29.67074 55.32645 5.4363604
29.753656 56.034237 2.2731032
29.767256 55.65262 2.5788238
29.591537 55.398552 5.3174033
29.723661 56.077118 6.1064816
29.528395 56.616463 2.0681214
29.64037 56.833664 7.3538074
30.242664 56.56116 8.116161
30.363598 57.082027 13.564262
30.258366 56.97367 14.526687
30.32201 56.918 15.593216
30.377 57.0613 16.106865
29.538477 57.794167 2.1784632
29.663198 57.692978 7.931779
30.275734 57.816795 13.16845
30.166952 57.63999 13.610435
30.189844 57.5092 14.6010275
30.244772 57.426968 15.591373
30.372715 57.373997 16.075562
29.71269 58.416084 2.2290409
29.37078 58.488903 7.471034
30.076715 58.041794 8.231571
30.369013 58.044468 12.996215
30.268864 58.28237 13.630441
30.28348 58.308884 14.32135
30.340845 58.018414 15.617972
30.39982 57.91843 15.935764
29.557617 59.628033 5.836506
30.126657 59.981926 2.2296238
29.942377 60.432446 2.707929
29.641636 60.273983 4.2424994
30.156153 61.10592 3.3179324
30.177914 61.138485 4.0528917
30.14032 61.19698 6.1419907
30.239922 61.69875 7.3861456
30.088114 62.315254 6.0920653
29.946665 62.876907 6.5187635
30.094727 62.699493 7.66332
30.229237 62.961914 8.443854
30.349182 63.01595 8.975502
30.263077 63.598686 5.9121246
30.082647 63.34187 6.4741435
30.100206 63.299736 7.6212254
30.148588 63.534897 8.485381
30.314571 63.544437 8.9973345
30.374289 63.8361 5.9115424
30.274889 63.996635 6.66458
30.283052 64.177765 7.8272777
30.274502 64.10499 8.57431
30.361288 64.07917 8.986354
31.31683 50.04621 9.872644
31.405489 50.23186 8.909482
31.343939 50.542862 9.46684
31.420113 50.46893 10.297542
31.396336 52.97758 12.988188
31.36835 52.897503 13.408541
31.426556 53.090492 13.988898
31.406342 53.950108 8.30977
31.251158 53.62786 12.731609
31.226828 53.620823 13.588973
31.285742 53.737843 14.248714
30.403 55.00873 2.980595
30.336706 54.61806 3.7814066
30.276669 54.626564 4.5729795
30.839186 54.751465 4.899569
30.941761 55.11465 6.629429
30.862236 55.086594 7.969358
30.96518 54.79165 8.0843525
31.237043 54.390606 12.473006
31.120083 54.835102 13.523149
31.243458 54.216827 14.259606
31.40355 54.066704 14.7774
30.439226 55.497673 2.5490074
30.68347 55.540134 7.774691
30.70538 55.49481 8.387349
31.371304 55.351475 12.181774
31.349323 55.362732 13.946802
31.001965 55.49134 14.440321
30.807184 56.175552 15.522692
30.442196 56.489525 8.351598
30.975908 56.444557 9.141158
30.451431 57.127213 13.179065
30.511553 56.693203 13.557739
30.51621 56.51875 14.594107
30.57438 56.462593 15.567341
30.711586 56.72177 16.287891
31.009668 56.891354 16.705166
30.213789 57.54849 1.7295656
30.570402 57.444042 8.542833
31.203117 57.119946 9.169059
30.620768 57.600334 12.729555
30.569519 57.560875 16.384153
30.990515 57.473 16.775618
31.135805 58.598843 -0.031782
31.09141 58.099285 9.180096
30.53762 58.305893 13.061301
30.462667 58.57288 13.406192
30.441996 58.580284 14.49167
30.571352 58.3562 15.558693
30.707592 58.06125 16.25823
31.015121 57.871643 16.714556
31.19645 59.425117 -0.33117497
30.650793 59.45498 0.8201981
30.969158 59.658813 8.947677
30.939373 58.873062 13.133407
30.8608 58.939686 13.660247
30.687962 58.672638 14.690337
30.867723 58.74083 15.302797
31.25996 60.355373 -0.11467935
30.949463 60.41141 0.78299665
30.735615 60.366962 1.6195577
30.812832 60.37588 8.853931
31.280064 60.791172 0.49639037
31.021706 60.923363 1.6753542
30.75369 61.229385 2.6096468
30.552155 61.44843 8.3601885
31.001034 61.744957 9.298139
30.915737 61.737183 3.8510935
30.593262 62.603622 5.1351404
30.484035 62.115353 5.3428245
30.456772 62.28778 8.632194
30.601612 62.77001 9.229985
31.121767 62.91931 9.74621
30.753572 63.656597 5.286783
30.44548 63.166576 5.3883834
30.534063 63.570393 9.339712
30.784014 64.15067 5.782754
30.605927 64.2726 6.461722
30.445887 64.43857 7.8555355
30.500261 64.51206 8.59138
30.688938 64.24023 9.192811
31.083303 64.6021 6.610056
30.819077 64.71291 7.762224
30.890287 64.793434 8.455765
30.935354 64.651215 9.06112
32.399902 46.73886 5.8863506
32.393764 46.705215 6.4764857
32.440613 47.38046 5.7912354
32.354107 47.189526 6.416945
32.4233 47.277805 6.913763
32.407234 49.015766 8.065851
32.04184 49.12782 8.464954
31.882177 49.131493 9.691312
31.997847 49.10197 10.385029
31.691639 49.51572 8.933651
31.584179 49.491142 9.347242
31.620495 49.637974 10.320919
31.95196 49.583866 11.026637
31.71141 50.346542 8.277242
31.601141 50.291016 8.640731
31.545126 50.427628 10.546718
31.908003 50.560646 11.243328
32.22453 50.865482 12.6208725
32.195717 50.89039 12.94144
32.093666 51.126064 8.083985
31.647142 51.016544 8.61366
31.621069 51.62851 9.609244
31.543867 51.48661 10.491568
31.768269 51.284576 11.501823
31.799822 51.60971 12.456811
31.744028 51.885357 13.275273
32.18903 51.78015 14.130639
32.01427 52.94633 7.7907267
32.180832 52.0671 8.4195175
31.626299 52.091465 9.708405
32.165005 52.74064 10.258614
32.01199 52.39941 11.346546
31.649193 52.675835 13.838406
31.719948 52.768036 14.33551
31.867 53.06962 14.870225
31.796959 54.14823 6.717332
31.88428 53.221615 7.6125093
31.607738 54.00779 8.849825
31.741707 54.06991 9.716847
31.851324 53.582657 15.047904
31.27103 54.66732 3.6125267
31.80933 54.911396 5.491893
31.45886 54.560287 6.6682587
31.740507 54.670338 10.9695215
31.779379 54.258614 15.200547
31.284716 55.6904 2.5513716
31.795038 55.429314 10.374888
31.828787 55.73213 11.184213
31.696592 55.987442 16.347872
31.912283 56.164856 16.701202
31.860914 57.308994 0.8327601
31.603441 56.70649 1.7921474
31.64801 56.808556 9.51102
31.901045 56.404118 11.738086
31.662596 56.653175 16.837805
31.765593 57.970398 -0.2605942
31.402506 57.905643 0.273563
32.057354 57.302155 9.847745
31.88182 57.241573 11.941591
31.409653 57.48376 16.929167
31.773912 58.216705 -0.68486106
31.425594 58.14075 16.749231
31.695288 59.1979 -0.8674288
31.9312 59.46352 9.566833
32.113693 59.52926 12.686782
31.590027 59.220768 13.304275
31.380827 59.29454 14.738083
32.087822 59.3177 15.311747
31.899504 60.323227 -0.8153346
31.597866 60.546337 -0.38971645
32.188908 61.064156 12.628921
31.990011 60.71214 -0.6540829
31.804054 60.874138 -0.22610545
31.650879 61.059814 0.516532
31.743696 61.5022 1.9158411
32.25952 61.50232 12.183075
32.211926 61.55771 14.403907
32.28549 61.806705 15.4277725
31.540007 61.63741 2.8570464
31.786032 61.94863 3.6341417
31.28605 62.82719 9.948526
32.383095 62.635582 11.631375
32.21232 62.277283 12.754812
32.322662 62.326538 14.633541
32.29752 62.226025 15.224189
31.84647 63.29473 4.878456
31.620129 63.97465 5.2485456
31.482338 64.332436 5.715603
31.870325 64.487434 6.3712926
31.443192 64.4466 9.453895
31.562204 64.218605 9.62498
31.359463 64.536026 6.0479164
31.767727 64.71974 6.549451
31.49854 64.877235 7.5017843
31.342386 64.93636 8.3387575
31.485855 64.8016 9.0298605
33.27155 45.349697 6.1585064
33.18453 46.225075 4.0752664
33.18179 45.98166 4.6809063
32.859108 45.89938 5.711585
32.82417 45.864838 6.4168797
32.905724 45.98877 7.0591736
33.26542 46.90909 3.2887383
33.047703 46.72304 3.7095199
32.80378 46.63367 4.6019487
32.602337 46.47542 5.4877787
32.49809 46.45812 6.4878025
32.6762 46.55525 7.1954293
33.171577 46.532745 7.8569927
33.262703 47.1333 3.2283235
32.995953 47.329548 3.687558
32.731358 47.457726 4.469605
32.49728 47.80405 5.906198
32.500927 47.75976 6.248212
32.670525 47.592686 7.477954
32.875107 47.60393 8.227236
32.88225 48.39334 10.163741
33.049366 47.92851 3.9617305
32.925774 47.875614 4.31505
32.88699 48.35881 5.884413
32.65631 48.329 6.7674894
32.62281 48.31791 7.611107
32.37578 48.583332 9.741181
32.576153 48.625694 10.200866
32.53575 49.032642 11.177184
33.125034 49.29611 12.191161
33.39156 49.270733 13.540052
33.347816 49.021854 6.1806035
33.202766 49.582825 6.728885
32.713783 49.581505 7.4726624
32.36172 49.70726 11.486924
32.64702 50.103386 12.632542
33.078568 49.768158 13.381797
33.078564 50.129868 13.988324
32.395252 50.07129 7.681144
32.82625 50.51098 13.461761
32.908325 50.86215 14.340809
32.611294 51.9613 7.287671
32.493374 51.93891 14.570985
33.36638 53.137623 -3.4997876
32.948086 52.77997 6.8684173
32.582733 52.624474 15.109484
33.361504 53.72547 -3.951337
33.304558 53.482204 -3.3654473
33.255253 53.590584 -2.860773
32.48235 54.12425 6.305847
32.551357 53.49308 6.701395
32.615566 53.51794 15.497625
33.394676 54.198742 -3.976349
33.30567 54.399197 -3.535988
33.46838 54.280212 -2.0369167
33.452538 54.54065 -0.36510962
33.490612 54.57269 1.031624
32.46392 55.35022 3.6524432
32.08277 55.132313 4.6089144
32.20287 54.17952 15.52622
32.567776 54.91994 15.888806
33.46543 55.35492 -0.37675476
31.896645 55.528126 2.8230867
32.59147 55.474304 15.95213
32.767376 56.088802 16.83049
32.44489 57.20762 0.04813361
32.626385 56.759525 17.096855
32.85913 57.825783 -1.2797635
[...]
POINT_DATA 7806
SCALARS features_00 float 1
LOOKUP_TABLE default
0.70847785 0.671985 0.62001354 0.6903326 0.70160365 0.65655017 0.5821247 0.63389003 0.6600733 0.62103593 0.560945 0.57799226 0.5249156 0.46515954 0.68286324 0.6302415 0.7020023 0.7082325 0.6676575 0.5749351 0.62226415 0.6678988 0.5152576 0.4451897 0.30030057 0.5951818 0.59455967 0.42106792 0.3175463 0.5145731 0.5313743 0.44428128 0.44698274 0.3983785 0.3212988 0.34054172 0.37963453 0.38039413 0.36862853 0.36841887 0.6565229 0.648936 0.6002833 0.47686237 0.60064805 0.6371948 0.50620127 0.34905165 0.57318413 0.2440005 0.21200939 0.5137929 0.55172455 0.61888206 0.65017915 0.5007071 0.2226853 0.5458274 0.5691481 0.6060561 0.63959527 0.65659416 0.41440445 0.29389018 0.15834826 0.5245961 0.56720203 0.5956353 0.63832134 0.6478257 0.27468053 0.268933 0.26177168 0.25639984 0.25557625 0.18369773 0.28107908 0.4156882 0.48620963 0.5509825 0.5278646 0.5364382 0.53607655 0.6044332 0.5955374 0.6060237 0.61679614 0.6163156 0.6212737 0.649974 0.68524665 0.68122375 0.67876154 0.46144876 0.39413005 0.4331103 0.42899546 0.26239413 0.29159114 0.3187821 0.12553641 0.24039094 0.2974532 0.32704926 0.59664035 0.585644 0.52564967 0.41018075 0.1315626 0.17573461 0.16711253 0.20346321 0.24941622 0.3201866 0.34043235 0.5628717 0.1863052 0.17583041 0.1515528 0.26725927 0.30795613 0.52705956 0.2099349 0.14851949 0.48873925 0.44565195 0.47281215 0.5745318 0.6378693 0.63554585 0.41484642 0.1501995 0.11136343 0.47036505 0.66051054 0.6499487 0.4653643 0.04818612 0.51348835 0.5393496 0.58600724 0.61284816 0.63785064 0.6406125 0.5811136 0.40797675 0.031331837 0.4809364 0.51710707 0.5724695 0.55992305 0.5348065 0.44541287 0.34292805 0.10055461 0.48946083 0.37301242 0.31954336 0.32408044 0.29480857 0.23491827 0.46611094 0.38695037 0.43543708 0.4890688 0.51201904 0.60174686 0.56006765 0.62104404 0.6289609 0.6526944 0.6989707 0.70894 0.6956197 0.64508915 0.6985529 0.7070258 0.70717305 0.55443454 0.5149399 0.48019475 0.45558923 0.42145094 0.23169978 0.31184664 0.4455205 0.4097828 0.39862967 0.44292107 0.44521463 0.35976446 0.29393488 0.35054588 0.41002777 0.31200415 0.18413255 0.19155344 0.2036508 0.31953442 0.3412642 0.32314456 0.24690256 0.20036381 0.2510961 0.2889083 0.06883238 0.16774486 0.25742197 0.10455266 0.15986472 0.30811486 0.3223052 0.32020292 0.045698643 0.06947307 0.07473465 -0.033127002 0.31649926 0.50790435 0.11305493 0.061708108 0.029726781 0.31210512 0.459206 -0.13040446 0.0014993772 0.4331938 0.42355496 0.17503329 0.25937107 0.06602754 0.17208108 0.5424026 0.39167112 0.30569822 -0.011880336 0.26634753 0.61939657 0.4651602 0.59461045 0.5992079 -0.064561866 0.19724059 0.4339217 0.46916786 0.35605347 0.56706846 0.5546135 0.07486408 0.5587883 0.54066086 0.49468118 0.37836498 0.21826869 0.4019392 0.52255493 0.31316856 0.21700527 0.4751246 0.2841247 0.37115204 0.48883402 0.5372846 0.4907963 0.5721688 0.5951152 0.5749722 0.6721728 0.6578027 0.6134093 0.5898118 0.65581065 0.68168664 0.665036 0.6414455 0.6257944 0.6245562 0.64404124 0.6291795 0.5865946 0.6238937 0.6474441 0.6605998 0.6205687 0.55092895 0.5142425 0.4774083 0.6195243 0.6551751 0.64051473 0.41236418 0.38953748 0.35691234 0.31475186 0.26172644 0.61901575 0.61095536 0.3448193 0.27584076 0.22789133 0.3729748 0.330448 0.284006 0.17353134 0.21142662 0.2136386 0.11351386 0.16354087 0.27584207 0.17691895 0.20578521 0.24713227 0.18572208 0.21687025 0.27449417 0.031998053 0.29761702 0.6602633 -0.07698723 0.26890942 0.66812694 0.6660812 0.6432953 -0.08385225 -0.041312933 0.21394296 0.66583276 0.6732663 0.4941423 0.259365 0.21918315 0.240154 0.30330467 0.23299533 0.14211552 0.19868603 0.42547357 0.18305792 0.27516365 0.20553832 0.38813418 0.44909936 0.39214295 0.40960467 0.4944866 0.5533016 0.4312061 0.57583916 -0.091878444 0.2045551 0.16016684 0.56036043 -0.03129886 0.3432153 0.3311493 0.55041856 0.521584 0.47002918 0.51086956 0.38453767 0.33128136 0.25903088 0.1733286 0.28374168 0.52122337 0.55378985 0.58019656 0.39229608 0.35341316 0.3843165 0.46866542 0.5469449 0.59030384 0.506814 0.54336834 0.35019168 0.526831 0.53545713 0.53258157 0.4541243 0.5560861 0.5983565 0.60649604 0.5343482 0.5588308 0.58483005 0.5927185 0.6207012 0.49882263 0.39949238 0.28365257 0.5726974 0.6135081 0.39119655 0.71025854 0.78193474 0.82941306 0.57060194 0.144277 0.12732701 0.6691468 0.73582923 0.77557176 0.49406353 0.5373218 0.20668414 0.20223504 0.2265629 0.31520477 0.15957166 0.20607167 0.24743445 0.24877414 -0.10326294 0.2626408 0.6125928 0.57980585 0.2081093 0.101549335 0.6474215 0.6441597 0.6092566 0.4989614 0.22769333 0.20984265 -0.2115956 0.15893227 0.103218496 0.6310991 0.656163 0.40777034 0.34208733 0.24648106 0.20019487 0.1308782 0.026082586 0.6182545 0.6388657 0.19717555 -0.10921 -0.31823057 -0.4172356 0.10495699 0.5957366 0.64233136 0.27111846 0.08878802 0.18767598 0.26634955 0.2413582 0.17485249 0.4980961 0.49942452 0.17994696 0.065895304 0.5272696 0.06323399 0.51694286 0.486331 0.3847913 0.25701717 0.4414844 0.3773422 0.30001545 0.15431544 0.5434401 0.3854602 0.37204096 0.5166263 0.5969345 0.4294216 0.4401788 0.24124256 0.14118181 0.2473242 0.25575745 0.36153936 0.45629382 0.43029565 0.37041646 0.2713392 0.5046716 0.5404629 0.5489881 0.45324 0.858902 0.5431025 0.5140084 0.5234571 0.454881 0.33472753 0.26565418 0.66573334 0.8018598 0.8783276 0.91401815 0.9365001 0.5132599 0.18346512 0.06531212 0.5391878 0.63773894 0.7574651 0.8420137 0.8854269 0.9211812 0.37815738 0.517906 0.050704584 0.00945223 0.13538674 0.54474235 0.62107706 0.6304437 0.7212399 0.79237235 0.8723853 0.35829315 0.36814156 0.09392223 0.17439486 0.21765438 0.19341846 0.562878 0.5860909 0.65233487 0.73354113 0.826591 0.2411296 0.15088114 0.50274396 0.4946618 0.57799864 0.005080238 0.20222542 0.34281796 0.42301196 0.557037 0.5708995 0.510406 -0.29621607 0.038903896 0.4466136 0.48966622 0.33284426 0.6003115 0.6142097 0.4106561 0.2729471 0.06502043 -0.011230227 -0.2562787 0.011447411 0.3591839 0.48618805 0.514795 0.45454127 0.35921955 0.59966 0.62769735 -0.10812374 -0.40425742 -0.24739623 -0.051014405 0.3487716 0.46653324 0.5085092 0.46745527 0.58235365 -0.12796544 0.43399996 0.45257652 0.54224557 0.499646 0.37389588 -0.019226205 0.017576033 0.35714984 0.08927726 0.11985093 0.055742178 0.11879679 0.10734658 0.2783062 0.45245436 -0.013878375 0.45302916 0.042400934 0.47910523 0.368492 0.30946118 0.16775389 0.0888894 0.5000271 0.10281994 0.53139186 0.27550006 0.25582367 0.123634905 0.056623664 0.15189001 0.19062068 0.44347572 0.39335072 0.3196495 0.20384854 0.40439945 0.4730847 0.42619336 0.76409614 0.8355042 0.8714464 0.34299752 0.38562468 0.2957192 0.19285992 0.5243113 0.62515795 0.72865677 0.9152308 0.94066423 0.41761014 0.04639314 -0.0048682657 0.39501464 0.52044207 0.9573927 0.4060503 0.035993945 0.08820284 0.1271012 0.13978538 0.29936397 0.47697425 0.9128171 0.3889849 0.32106957 0.11204986 0.3029354 0.44336438 0.75125444 0.83089554 0.25177252 0.2067416 0.0726383 0.111658916 0.14116836 0.50000226 0.4467377 0.42101818 0.07655681 0.091052495 0.09713413 0.20698796 0.22551915 0.1938405 0.11604111 0.14760265 0.5104343 0.46384698 0.39977112 0.36309418 -0.05789669 -0.16858509 -0.108779244 -0.14946495 0.19527745 0.21758765 0.22446333 0.1933299 0.3018128 0.1400206 0.08176376 0.53984267 -0.043048985 -0.13847362 -0.20276858 0.15016475 0.1987569 0.1018188 0.16994816 0.22380206 0.18235698 0.52129024 0.53702056 0.07608118 0.052412916 0.12348806 0.27985945 0.38769704 0.5209525 0.5370733 -0.1431289 -0.067042805 -0.005967468 0.13325958 0.35907406 0.29824212 0.50258595 0.40005332 -0.07481768 -0.034051113 0.26358238 0.37503296 0.27843678 0.088504076 0.021881506 0.042139843 0.10724215 0.18505844 0.37546524 0.03124243 0.03401599 0.17339748 0.37837666 0.5107807 0.53914386 -0.026392255 0.023117103 -0.0048868656 0.30928782 0.5107489 0.65194106 0.643469 0.6050345 0.3735656 -0.10582037 0.43784964 0.58721936 0.70034003 0.70181286 0.63493454 0.36484915 -0.087923944 -0.11405747 0.438498 0.6100754 0.6674727 0.6665074 0.64346683 0.14620203 -0.052402444 -0.05385264 -0.008390509 0.5646241 0.62027174 0.62300956 -0.15255745 -0.09804027 0.39831766 0.02682282 0.008537397 0.07733341 0.031191058 0.077832535 0.17179053 0.09384899 0.07657359 0.005890957 0.30521253 0.3722328 0.38712674 0.767866 0.8065327 0.8527359 0.2929181 0.22473744 0.23882873 0.3050785 0.16234535 0.15997006 0.43000978 0.5454303 0.8790792 0.917855 0.47704744 0.4848745 0.42910606 0.06547672 0.073305845 0.034988225 0.13859636 0.17725506 0.22036992 0.21869236 0.29906118 0.9413707 0.44431973 0.44751424 0.18015803 0.1787096 0.20586489 0.89709735 0.35015798 0.09983369 0.1004224 0.064796366 -0.06984045 -0.072028875 0.053570565 0.5840304 0.7505317 0.22187027 -0.042552285 -0.02994312 0.1061428 0.034885086 -0.014474697 0.054670095 0.26347008 0.46872333 0.4196095 0.39972514 0.3517108 0.116505824 -0.041537844 -0.26319292 0.14367203 0.457628 0.44941458 -0.032931507 -0.03020259 0.092515714 0.13005841 0.27981478 0.4805223 0.050220713 0.26198757 0.49304795 0.588236 0.47796476 0.056203824 0.21351357 0.33072233 0.45812875 0.60067254 0.49580044 0.50545454 -0.0027508237 -0.07856047 0.15267888 0.20290545 0.28769115 0.4789493 0.61731774 0.4584679 -0.05557996 -0.058465756 -0.014090657 0.018006623 -0.039551854 0.048066743 0.18500207 0.08136257 -0.17971468 -0.0910297 0.023497391 0.32177806 -0.042689934 0.16260748 0.49352893 0.46413577 0.056652382 -0.049387887 -0.07056694 0.17421061 0.530874 0.50406104 -0.07298613 0.24709058 -0.112670824 -0.13342547 0.14191593 0.28573877 0.5799398 0.53783226 0.13598837 -0.17111444 -0.116291344 0.08094965 0.33818913 0.6160774 0.60040706 -0.12223823 0.034377657 0.5253197 0.5830556 0.5787333 0.56984425 -0.011581548 0.14978644 -0.09217021 -0.030592658 0.19254208 0.08778032 -0.09312938 -0.03287688 0.038418226 -0.09162158 -0.1168967 -0.027807318 -0.009388953 -0.028423183 -0.03708089 0.012168368 0.20860392 0.31022146 0.2998564 0.32744926 0.2866394 0.32742053 0.330778 0.30782595 0.6959073 0.55040544 0.49734825 0.31707796 0.16332196 0.23134468 0.24493775 0.21263331 0.23365216 0.21776156 0.22870325 0.19734956 0.40444633 0.5320152 0.60764503 0.7109021 0.78733516 0.8761437 0.5256849 0.52754235 0.14877805 0.23292543 0.20312871 0.15902378 0.17435347 0.22363684 0.82627636 0.49611247 0.12176857 0.031116072 0.13658823 0.78736234 0.43401164 0.0013905372 -0.031882495 -0.1311623 -0.18628126 -0.07359549 0.5720395 0.18086486 -0.0929533 -0.035882767 0.059352405 0.081991285 0.3828413 0.3294708 0.19429004 -0.04041493 0.028629601 0.020376697 0.050730094 0.41189092 0.39575487 0.33633912 0.40094292 0.64201987 0.7284144 0.38173544 0.6744776 0.72589207 0.38120785 0.48062128 0.63719577 0.71393263 0.07150376 0.016494665 0.09950949 0.070923164 0.2040569 0.34007096 0.5527928 0.3181376 0.48676768 0.4335773 0.3164863 0.50455123 0.43467444 0.35755712 0.17788228 0.36836404 0.36265877 -0.043875918 -0.169682 -0.23521717 0.4269684 -0.21750374 0.06911088 0.5052354 0.45555437 -0.14347112 -0.043653935 0.14325483 0.24828988 0.3411639 0.34168673 0.42977726 0.46067125 0.44093984 0.0539637 0.092721224 0.28909558 0.3329654 0.4218382 0.38308677 0.04426498 0.11867137 0.08836286 0.15747294 0.35935184 0.41169482 0.11382998 0.069375634 -0.030293021 -0.070420474 0.1901316 -0.016102415 -0.0941887 -0.060263105 0.025205968 0.3327595 0.31303298 0.4157964 0.4243787 0.4097529 0.37188536 0.45592734 0.458665 0.28165218 0.2941128 0.17266221 0.16561142 0.56090975 0.5014627 0.32840955 0.17567486 0.21527621 0.26192242 0.25817764 0.2242122 0.2510156 0.25951782 0.2582226 0.20421708 0.19669016 0.15705782 0.14967895 0.17891088 0.40516204 0.45842665 0.5732552 0.5696722 0.5766568 0.034641538 0.04896772 0.16327572 0.6288051 0.5423027 -0.14974016 -0.15612157 0.2934695 0.54895383 0.40147835 -0.1581403 -0.20798552 0.12815675 0.20216636 0.051347703 0.31825942 0.18124649 0.11908928 0.13029853 0.05925496 0.29783916 0.630759 0.2712248 0.73681885 0.16394137 0.7612122 0.74876124 0.17841208 0.6471163 0.71278703 0.0073781833 0.5202597 0.60503256 0.50783515 -0.1134712 -0.032106135 0.076949835 0.5327219 0.072997496 0.004182799 -0.01436265 0.5443615 0.49129903 0.19023483 0.14102626 0.52242005 0.474684 0.33124325 0.115233324 -0.071845174 -0.29196644 0.27847463 0.3905335 0.36414707 0.5270226 0.5009891 0.4545518 0.36090663 -0.096988715 0.367111 0.39008188 0.5706963 0.5135541 -0.09479818 0.34320182 0.24490628 0.284161 0.3426727 0.5882585 0.03887066 0.06306994 0.36222288 0.40536088 0.39299932 0.032581743 0.09420444 0.23202547 0.11968463 0.36235934 0.050473683 0.058772832 0.07821489 -0.089990996 0.054537326 0.321391 0.37966132 0.4487949 0.4051467 0.44599378 0.4820523 0.47565442 0.2739164 0.2625865 0.24577236 0.22359535 0.2342798 0.18131515 0.14761561 0.07675109 0.117639765 0.5138252 0.43804526 0.37675112 0.25446826 0.25944257 0.27072775 0.250166 0.21034744 0.24934456 0.24488375 0.21005929 0.12398115 0.04348556 -0.032324694 0.08234738 0.079953775 -0.017958932 0.032495566 0.33555603 0.31459236 0.56693316 0.51708806 0.4159329 0.33971393 0.17335501 -0.003301844 -0.0716155 -0.06489894 0.016942544 0.0026465766 -0.15498027 0.29220435 0.33090648 0.49169457 0.13288192 -0.011373669 0.17688885 0.1648497 0.25424188 0.1051013 0.20124872 0.2460595 0.3732987 0.5838055 0.060407057 0.66064334 0.73061395 0.7105231 -0.16623262 0.65457284 0.66527843 0.3432437 0.18620127 0.51788485 0.49048644 0.3286066 0.559957 0.5725451 0.097338215 0.4018479 0.57522655 0.5729326 0.19167446 0.16507491 0.5539541 0.50683296 0.4050895 0.09244646 0.25619686 0.21154264 0.12467456 0.27825725 0.30217183 0.53178966 0.2615391 0.26121855 0.28177878 0.55355364 0.5880201 0.5888343 0.54483736 0.3544097 -0.003939621 -0.059549745 0.22467192 0.2511163 0.28926697 0.5978421 0.5854485 0.5130354 0.4278704 0.0014490001 0.003953606 0.011333393 0.32126713 0.29619142 0.28422394 -0.039475676 0.064692885 0.30534637 -0.015246638 0.08623721 0.104854584 0.14194186 -0.075032756 0.2693071 0.15846546 0.13494182 0.08272014 0.45353103 0.3672805 0.43862987 0.47105622 0.47292516 0.36934146 0.35338032 0.30881304 0.3308372 0.35033795 0.31431642 0.28632045 0.12852347 0.2298255 0.1419079 0.13493961 0.090414934 0.27606505 0.3070221 0.3075795 0.06666021 0.14789034 0.27641952 0.26995942 0.30106932 0.28211984 0.23557016 0.15014999 0.115455136 0.0013491139 0.3191442 0.2263259 0.27912045 0.0695865 0.034909293 -0.09958589 0.22346509 0.07707255 0.09676848 0.0018205345 -0.119036935 0.21113795 0.2690792 0.2528264 -0.12942567 0.11285607 0.11423707 0.077726364 0.0429872 0.3416981 0.10670635 0.06454665 0.3926723 0.5210403 0.105659895 0.02323467 0.5777155 0.33361852 0.31129318 0.49937925 0.3746708 0.28972584 0.2564304 0.54755175 0.41953975 0.42915195 0.5568352 0.55435866 0.43214825 0.46595243 0.5390518 0.3511566 0.4448622 0.4654169 0.4973259 0.20925565 0.17054752 0.20978172 0.22553326 0.55558133 0.22167096 0.21015573 0.5804328 0.5894162 0.55889106 0.37559003 0.17629792 -0.004091236 0.24230461 0.25605226 0.56155217 0.48279566 -0.016121823 -0.024560291 -0.14532611 0.16854577 0.22461425 -0.013365455 -0.030165449 0.0028522173 0.058070675 0.087273344 0.15005259 0.14140993 0.12074703 0.110617034 0.36581445 0.34040266 0.15828338 0.15383269 0.12733424 0.10969338 0.10536647 0.29179615 0.33258826 0.40619522 0.36394936 0.34716058 0.32139015 0.28000408 0.3494324 0.37995377 0.3564715 0.30005074 0.26180565 0.24097632 0.17136529 0.21880671 0.23180363 0.12995568 0.2277156 0.1349301 0.21010049 0.22796045 0.22241902 0.12446271 0.19371226 0.17923577 0.23856045 0.28342474 0.28099895 0.26980236 0.20852615 0.0802563 0.0059420913 -0.09919978 0.11217275 0.174465 0.15929544 0.21017867 0.24225974 0.17556374 0.044288713 -0.09913714 -0.013588481 0.028494768 -0.012998268 0.07325881 0.09578368 -0.08273248 -0.19657892 0.10575429 0.46877176 0.4455258 0.48218673 0.19202584 0.17400631 0.041458927 -0.22111614 0.16778353 0.33879286 0.22925943 0.1957496 0.07875946 0.040699642 0.15868334 0.1503257 0.25618804 0.15206635 0.124613136 0.37621504 0.15876815 0.1750916 0.43001023 0.24530652 0.50260764 0.36315495 0.5254283 0.50756997 0.4606648 0.44160646 0.45149678 0.45705983 0.38756987 0.4389907 0.4602496 0.26945308 0.06387938 -0.12006129 0.24643561 0.358644 0.42072108 0.4232578 0.120860815 0.09162871 0.4878933 0.13706042 0.16797847 0.5048392 0.519079 -0.26812404 0.16194938 0.10846119 0.48841667 0.45947927 0.3638884 -0.12912887 -0.34064323 -0.21199718 0.0371449 -0.21311194 0.025361307 0.019778997 0.07678063 -0.02005456 0.072601646 0.22421345 0.21028258 0.114550255 0.09806984 0.09100121 0.081644595 0.040325034 -0.01633906 -0.0032583177 0.020248361 0.24471544 0.069037855 0.2509386 0.3032809 0.30922988 0.24163163 0.20339072 0.26170272 0.10389582 0.16170436 0.19776678 0.2122728 0.1861743 0.20815036 0.23652537 0.22752118 0.13301787 0.21691379 0.24333455 0.21376793 0.14354116 -0.070392676 0.18453062 0.1717062 0.17338456 0.18534735 0.1574378 0.19053958 0.53378063 0.19401446 0.19823116 0.14498794 0.07003176 0.03108114 0.27623278 0.46618906 0.53610516 0.5248527 0.0983368 0.009408943 0.035461593 -0.03896244 0.25483894 0.278153 0.3591415 0.52178204 0.5048821 -0.16682938 -0.09516758 0.22339293 0.24597685 0.27159256 -0.13487166 -0.08721933 -0.16658448 -0.388914 0.19889522 0.18465677 0.20903507 -0.22298674 -0.30745602 0.103616245 0.16030318 -0.088683024 0.037918173 -0.0017368256 0.1502315 0.19427708 0.35547417 0.4186855 0.2243652 -0.006496802 0.43888205 0.434466 0.43664283 -0.10206107 -0.0639894 0.11982275 0.25078705 0.34263676 0.41229603 -0.08323553 0.013438432 0.3845601 -0.3539289 0.43128312 0.46392506 -0.10785373 0.45187616 0.39633232 0.33999097 0.074873894 -0.13795434 -0.25855806 0.0042063403 0.04083099 -0.09439053 -0.057684522 -0.02986632 0.122493014 0.1248395 -0.1357729 0.22725168 0.23250988 0.04940773 0.048262075 0.06942111 0.09378167 0.12083162 0.24583325 0.2798385 0.28231442 0.26527083 0.20340171 0.08262715 0.0528089 0.029650196 0.19350319 0.28405315 0.2715819 0.23015806 0.1829778 0.15594481 0.13064018 0.17046317 0.1763784 0.22348252 0.20803621 0.14694709 0.023756899 0.094948895 0.11235063 0.16378984 0.17834273 0.55691993 0.51130784 0.13272092 0.15216117 0.097004816 0.20552461 0.21747833 0.45427722 0.4278313 0.46045864 0.22584897 0.21917915 0.3880272 0.25645483 0.2067564 -0.04603663 0.21246709 0.20807831 0.23802038 0.26634082 0.26611477 0.086885825 0.20698324 0.20385936 0.22564496 0.22495736 0.2415553 0.2515939 0.48653233 0.5305298 0.5218046 0.09527679 0.3132059 0.38208035 0.48027492 -0.11070287 -0.23824622 -0.10177277 -0.0847134 0.34053087 0.18111989 0.2312713 -0.24942476 -0.32927924 0.26298684 0.14220656 0.020537606 -0.43716067 0.18470302 0.1235978 -0.3765689 -0.2609226 -0.24583122 -0.26909456 0.051914 -0.11008794 -0.25956064 -0.035802167 -0.18532205 -0.04220584 0.5659145 -0.14328061 0.24305862 0.28948346 -0.0015729368 0.3688922 -0.1439878 0.35366678 -0.124879465 -0.44022357 0.04106298 0.11688581 0.29346624 0.35106266 -0.06420107 -0.24633938 -0.107818194 0.32807598 -0.07108891 -0.07581465 0.39431703 0.28231698 -0.12373105 0.2825992 0.19662307 -0.11677592 -0.32278126 -0.26581877 -0.013584496 -0.054316476 -0.15140495 -0.08776699 0.12783954 0.121689945 0.11587335 0.016938142 0.18448706 0.16674322 0.14563541 0.108022325 0.19108376 0.24519382 0.2815976 0.23282036 0.27315125 0.08652143 0.0286332 -0.017420061 0.0038732477 0.18977454 0.20770672 0.28773054 0.33204168 0.25223505 0.27788907 0.2733432 0.20833561 0.21900028 0.23272917 0.242614 0.67830783 0.6860573 0.6809834 0.02785131 0.07041393 0.10338578 0.17811972 0.2062752 0.1838701 0.18966946 0.13728237 0.63366747 0.6790601 0.6943923 0.6839159 0.609029 0.11525774 0.53172493 0.5881317 0.58274454 0.5426722 0.51801664 0.035421908 0.17810023 0.4663282 0.47173065 0.39333442 0.48503438 0.44134092 0.046914842 0.6541085 0.634359 0.5776715 0.44368795 0.27768862 0.3076259 0.37674648 0.38840687 0.34744415 0.33238426 0.43511474 0.23303899 0.23089923 0.19043592 0.22471288 0.6663345 0.65440166 0.5989931 0.41268513 -0.021162607 0.24878138 0.302893 0.37432885 0.44327268 0.48395312 0.4986239 0.22630964 0.25842234 0.22610472 0.2387764 0.6517