# vtk DataFile Version 2.0
Really cool data
ASCII
DATASET POLYDATA
POINTS 6748 float
-13.569286 34.580757 -1.3192085
-13.566217 34.5586 -0.8570461
-13.581703 35.192513 -1.1873213
-13.574549 35.07644 -0.9079835
-12.918571 33.20839 -1.5033524
-12.901058 33.313484 -0.70829743
-12.712823 34.002068 -2.7102165
-13.032164 33.85864 -2.2257257
-13.372093 33.79607 -1.3830342
-13.24614 33.779755 -0.74862415
-12.929853 33.909138 -0.1653985
-13.237668 34.54705 -2.1891851
-13.482929 34.286118 -1.6997627
-13.388904 34.565052 -0.46844447
-13.033892 34.63368 -0.03411898
-12.944212 34.99826 -2.7271657
-13.005439 35.44089 -2.280489
-13.457587 35.315277 -1.461061
-13.368195 35.374676 -0.65371484
-13.100268 35.23308 -0.17489673
-12.810193 35.990738 -2.059335
-13.131752 35.94082 -1.3232186
-13.0988865 35.893204 -0.74386925
-11.551313 25.606651 1.7738354
-11.586947 25.644522 2.079213
-11.582442 26.299803 1.636362
-11.528901 26.23212 2.140069
-12.348023 32.9383 -1.99687
-12.667448 33.005302 -1.7808377
-12.078924 33.06197 -0.5154786
-12.243673 33.70646 -2.930916
-12.651311 33.672955 -2.615757
-12.6418295 33.41645 -0.37323558
-12.421017 33.985527 0.25336015
-12.370006 34.583004 -3.1887767
-12.574658 34.516556 0.30665508
-11.893305 35.44442 -3.6677632
-12.261974 35.354874 -3.2849405
-12.368002 35.193687 0.3315768
-12.097949 35.97154 -3.1149602
-12.2331 36.129597 -2.5713694
-12.440666 36.38182 -1.4383035
-12.549723 36.083088 -0.56998837
-12.338119 35.8597 -0.107500285
-10.756185 24.31688 1.7837288
-10.938342 24.92271 0.9750212
-11.154479 24.857063 1.6426467
-11.127143 24.816933 2.3465228
-10.966352 25.009954 2.8700106
-11.235379 25.577192 0.8472979
-11.459003 25.348293 1.5591689
-11.381334 25.435633 2.4527206
-11.135361 25.598923 2.923028
-10.980044 26.522486 -0.25294614
-11.402798 26.796072 0.70695394
-11.494185 26.443947 1.9122715
-11.349158 26.457481 2.437036
-11.002182 26.267155 3.0772932
-10.610539 27.88865 -3.3644497
-10.937093 27.427244 -0.49949956
-11.401696 27.215616 0.6529353
-11.324232 27.472221 1.231147
-11.184921 27.085047 2.348834
-10.886271 26.929794 2.943487
-10.820282 28.71461 -3.291218
-11.090661 28.599474 -1.6763213
-10.660415 28.623537 1.2215328
-10.639654 29.146624 -4.050382
-10.855597 29.715548 -3.4482636
-11.224007 29.382206 -2.5692387
-10.528913 29.519241 0.2736104
-10.70501 28.96306 1.1231577
-10.650246 30.107992 -3.6269388
-11.232143 30.288763 -2.4575515
-11.113648 30.292936 -1.6508446
-10.720352 31.273844 -3.0737267
-11.0792465 32.247143 -2.4608939
-10.866872 31.008074 -1.6059003
-10.921025 32.845734 -3.527719
-11.858919 33.278694 -0.1423708
-11.120298 33.954086 -3.7667358
-11.695062 33.529438 -3.3752377
-11.587911 34.738556 -3.8425531
-11.632426 34.535835 0.6013645
-11.554915 35.39903 -3.810742
-11.603544 35.272118 0.38623196
-11.107368 36.080833 -3.6633568
-11.534962 36.146645 -3.3386154
-11.872193 36.38164 -0.95656276
-11.079722 36.63341 -2.8626695
-11.137778 36.84452 -2.2525675
-10.293365 24.34583 1.0332336
-10.135548 23.90545 1.6517072
-10.129005 23.864397 2.4310644
-10.002658 23.982307 2.973154
-10.432038 25.226532 0.22182798
-10.398825 24.523481 0.9392939
-10.339788 24.66516 3.1152275
-9.830119 24.819042 3.605343
-10.169187 25.732702 -0.79585546
-10.31012 25.633362 -0.5431514
-10.528011 25.603931 3.4417725
-10.250224 25.556793 3.5980327
-9.966565 26.938559 -3.8505306
-10.014714 26.756823 -3.3782191
-10.267882 26.767246 -2.5980396
-10.496627 26.594236 3.457988
-10.2097025 26.38575 3.668524
-9.801159 27.538252 -4.4313154
-10.152651 27.382414 3.2571695
-10.024596 28.731249 -4.7575
-10.273084 28.4926 -4.340948
-10.411298 28.342222 2.41009
-10.010055 29.162691 -4.857396
-10.26823 29.3794 -4.537217
-10.218324 29.750967 1.6660509
-10.0137615 29.30232 2.3884814
-10.163759 30.75 -3.959511
-10.109614 30.285196 1.4608674
-9.8831415 31.486162 -3.9447556
-10.276439 31.032917 -0.4547904
-10.055166 31.635815 -0.07006689
-9.832107 31.904562 0.81378627
-10.607662 33.00588 -3.8318322
-10.677347 33.626396 -4.0403757
-10.0781 33.412945 0.37619698
-10.003712 34.658394 -4.6111593
-9.991745 34.516468 -4.5554695
-10.844464 35.244667 -4.0898085
-9.962382 35.451187 0.66047466
-10.518993 36.022778 -3.8134873
-10.745917 36.278587 -3.4834602
-10.595299 36.646908 -3.1153216
-10.824041 36.81237 -2.5277534
-9.640135 39.59574 -0.6918511
-9.536749 39.25289 -0.13018747
-9.660755 40.289375 -1.0568767
-9.60114 40.651737 -0.818149
-8.732612 -0.87220633 26.045504
-8.723512 -0.9289162 26.527454
-8.624492 -1.0067337 26.983267
-8.564239 -0.090645 24.77301
-8.727326 -0.39360842 25.760704
-8.892032 -0.4122734 26.650736
-8.7507715 -0.3087162 27.311205
-8.690287 0.59438 24.714298
-8.810847 0.40999702 25.693823
-8.90173 0.5690862 26.722212
-8.697423 0.44885626 27.468315
-8.526862 1.3147393 24.792845
-8.730579 1.3755091 25.679976
-8.846843 0.97245395 26.232428
-9.270248 23.41419 1.7549154
-9.2752905 23.373653 2.3848026
-9.018917 24.246523 0.2721132
-9.441474 23.985647 0.81319606
-9.513165 23.528538 1.6831311
-9.574726 23.490322 2.4364703
-9.363656 23.801466 3.1790154
-9.404689 24.820871 -0.11762199
-9.706101 24.404642 3.4689686
-9.673034 24.85336 3.6303203
-9.171959 26.139046 -3.3719058
-9.547512 26.143278 -2.835708
-9.449219 25.534489 -0.7839426
-9.507465 25.831114 3.8006947
-9.041942 27.014326 -4.6726294
-9.114526 26.665823 -4.2313495
-9.580481 26.451992 -3.6118805
-9.471066 26.57095 3.781893
-9.530199 27.847488 -4.8179636
-9.645574 27.276531 -4.3272796
-9.742743 27.30487 3.4891646
-9.57459 26.996916 3.6269124
-9.456037 28.070368 3.1057937
-9.366508 29.563456 -5.148424
-9.124717 29.53276 3.070957
-8.958939 30.262096 -5.225566
-9.558498 30.676767 2.1458747
-9.150485 30.132896 2.8922718
-8.639154 30.981005 10.01768
-8.85429 30.845621 10.776562
-8.87454 30.841688 11.588628
-8.826771 30.949986 11.958057
-9.309693 31.282084 -4.5283556
-8.904141 31.243042 2.790912
-8.816258 31.643024 10.064009
-9.018429 31.441828 10.679713
-9.11581 31.482946 11.446385
-8.9156065 31.611984 12.224812
-9.48963 32.260426 1.5026665
-9.089082 32.38898 2.3722825
-8.83231 32.130154 10.142
-8.94674 32.424892 10.778331
-9.066917 32.37703 11.367481
-8.906055 32.25108 12.214088
-9.532419 33.091007 1.249672
-9.181623 33.74948 2.4764912
-8.627383 33.116196 10.464698
-8.714588 33.188652 11.255076
-8.833295 32.816338 11.970613
-9.203621 34.610756 -4.927581
-9.310382 34.714043 2.1389945
-8.944685 34.58435 3.2424603
-8.616624 34.952698 4.203619
-9.058312 35.365597 2.44303
-8.963062 35.85741 3.314446
-8.749967 35.5061 4.308872
-9.52896 36.52069 -0.385513
-9.010917 36.177708 1.5083754
-8.855624 36.43563 2.8384027
-8.860076 36.26744 3.4801247
-8.672104 36.313087 4.223343
-8.956727 37.287888 -3.307209
-9.433391 37.00837 -0.14124411
-8.691118 37.557114 1.8430359
-8.725153 37.27259 2.4310188
-8.624922 37.138115 3.178364
-9.362574 38.416706 -0.71816176
-9.15145 38.81683 0.47348943
-8.715604 38.498028 1.1675054
-8.570906 37.950138 2.5918453
-8.850115 39.370335 -2.3227613
-9.283291 39.539143 0.27104753
-8.731573 39.532326 1.4263592
-8.734698 39.945953 1.8189957
-9.036126 40.563084 -1.9886646
-9.44414 40.57504 -1.4840261
-9.532438 40.725563 -0.31559137
-9.430017 40.62003 0.050654396
-8.898662 40.342842 1.2451613
-8.871419 41.023476 -1.8445956
-9.119002 41.16694 -1.2619512
-9.203999 41.247128 -0.6215121
-9.053717 41.16316 0.18790448
-8.69315 40.87508 1.3838497
-8.818959 41.5933 -0.92807305
-7.823772 -11.045773 15.910069
-7.886343 -11.063311 16.45792
-7.867752 -10.9149275 17.339256
-8.011795 -10.341552 15.771659
-8.255861 -10.415613 16.555773
-8.147052 -10.341022 17.253616
-7.851214 -10.234485 17.826021
-8.046066 -9.630163 15.890627
-8.26918 -9.531123 16.593164
-8.1704035 -9.543143 17.318727
-7.928429 -9.687429 17.795403
-7.913161 -9.093588 15.959207
-8.037211 -8.962994 16.56782
-7.96011 -8.939411 17.329323
-8.268419 -1.2009867 25.897799
-8.232153 -1.3417239 26.54694
-8.176173 -1.1527947 27.297012
-7.9784293 -0.9362807 27.816338
-8.491234 -0.19057682 24.768908
-8.419226 -0.70532537 27.610664
-8.213411 -0.3378879 28.014599
-7.9442472 0.42960134 23.319168
-8.229006 0.5919624 23.705612
-8.111811 0.28870815 28.20989
-8.345412 1.7176867 24.326946
-8.395061 1.5729132 27.163885
-7.8000674 1.4175994 28.069263
-8.226332 2.466655 25.60682
-8.109283 2.4769304 26.348665
-7.6945972 2.5631924 27.40764
-7.8758864 1.8740075 27.768637
-7.686451 3.4851644 26.029633
-8.197876 7.157078 25.92627
-7.9366436 7.1123543 26.55369
-7.8483286 7.164651 26.735083
-7.7611804 7.567626 22.857145
-8.119108 7.5279126 24.609295
-8.297381 7.5549517 25.492939
-8.175179 7.459321 26.177055
-7.716383 7.89685 26.933084
-7.8500566 8.424747 22.947012
-8.33229 8.5313225 24.533258
-8.357043 8.399349 25.531845
-8.134901 8.455833 26.415949
-7.8667903 8.49458 26.853987
-7.8437037 9.195416 23.069468
-7.9915433 9.305833 23.751139
-8.1948 9.46221 25.802845
-8.00393 9.635362 26.37944
-7.6882453 9.139785 26.838861
-7.891549 10.722747 24.225748
-8.266363 10.838138 25.511982
-7.965628 10.699264 26.305101
-7.7108808 10.267211 26.724747
-8.211496 11.6526785 24.684856
-8.4127865 11.631256 25.350342
-8.105325 11.694051 26.262924
-7.7938395 11.641657 26.643072
-7.6745133 12.518109 23.812223
-8.357091 12.23636 24.920828
-8.296231 12.6586895 25.495148
-8.090362 12.358106 26.092916
-7.8860393 13.737625 23.195631
-8.016855 13.839242 23.42149
-8.221372 13.513178 24.356932
-8.169491 13.23014 25.197563
-7.786237 12.953906 26.090816
-7.8233747 14.041238 23.138561
-7.985296 14.321631 23.662443
-7.9799395 14.332534 24.27352
-7.795755 14.320274 24.91143
-7.756654 14.779834 23.611168
-7.7400737 14.727996 24.319778
-8.814488 23.367699 1.7818484
-8.843492 23.32861 2.5276875
-8.485422 23.767553 0.94892704
-8.339337 23.544008 1.3762493
-8.3446665 23.507648 2.6043472
-8.673216 23.703615 3.088177
-8.581149 24.737528 0.023023278
-8.441706 24.361977 3.5186164
-8.756719 24.51947 3.6186981
-8.406363 26.288496 -4.132688
-8.547294 26.057468 -3.5648828
-8.194829 25.973892 -2.8335404
-8.65657 25.539314 3.6978862
-8.261033 26.932493 -4.8257184
-8.511101 26.473764 -4.340352
[...]
POINT_DATA 6748
SCALARS features_00 float 1
LOOKUP_TABLE default
0.80525887 0.80450606 0.8148681 0.8142292 0.75403136 0.7688428 0.62197393 0.70870245 0.78699434 0.78440976 0.7606971 0.7591061 0.7875664 0.7952353 0.77963555 0.70523626 0.7638899 0.81215245 0.8110908 0.79404336 0.76158106 0.81383204 0.81182253 0.6557266 0.66814065 0.6026442 0.63418245 0.59148467 0.6869947 0.67771435 0.51185024 0.59990776 0.74442655 0.7142936 0.585551 0.7476859 0.53703845 0.5981335 0.7472695 0.56389976 0.61569256 0.7745832 0.79336953 0.7618679 0.745656 0.63663083 0.70667493 0.752637 0.7534258 0.6078834 0.662206 0.70098066 0.7076577 0.50891423 0.5346077 0.6068209 0.63303375 0.6748812 0.42321974 0.40309304 0.4937701 0.48172104 0.5716206 0.62026805 0.3892482 0.31080443 0.30296987 0.36317235 0.34217542 0.3543452 0.11493456 0.24389225 0.31810665 0.3324502 0.29227626 0.17837453 0.14663619 0.22538505 0.20488021 0.619624 0.38431412 0.40190327 0.48958993 0.6076866 0.5025295 0.6183516 0.45663965 0.49710673 0.7244181 0.44834393 0.48212796 0.64673334 0.74087113 0.8187306 0.8429382 0.5363493 0.6281465 0.78906417 0.7609153 0.37986767 0.44118103 0.7081857 0.70099986 0.40690345 0.39801556 0.3397084 0.6378185 0.63564473 0.41144195 0.53049856 0.37383136 0.401096 0.38076162 0.3343818 0.32797185 0.16006449 0.21749355 0.23479402 0.092498966 0.09944287 0.01871121 -0.052036427 -0.0536583 0.1825882 0.2953275 -0.08073422 0.3420116 0.32961908 0.44934505 -0.061605036 0.39327654 0.41334546 0.38129884 0.41238314 0.56900454 0.40847737 0.6973678 0.69618326 0.78401107 0.8274313 0.8552547 0.5601715 0.7122236 0.8005057 0.85153484 0.5202673 0.612628 0.72596467 0.83427787 0.47724712 0.50968385 0.60507846 0.77597666 0.8350667 0.6023814 0.6554642 0.7592105 0.83118224 0.86995137 0.5013647 0.81535774 0.75638187 0.38325357 0.35118973 0.33712387 0.6449235 0.37580925 0.3850513 0.39507115 0.57692134 0.3955629 0.40590626 0.5178962 0.5434988 0.38851503 0.2592174 0.14235471 0.16864495 0.06774498 0.09415193 0.7161125 0.7198458 0.7065555 0.69663095 0.13422832 -0.0015278682 0.7083152 0.74004775 0.76437074 0.74639815 -0.025998905 0.005924195 0.68274975 0.6874204 0.7284131 0.7555114 -0.049742907 0.1011316 0.5836568 0.599579 0.6729338 0.21151802 0.13558765 0.24535559 0.33228832 0.20551862 0.30326647 0.38689333 -0.15201953 0.023880262 0.2367877 0.31909633 0.40245056 0.10157788 -0.22585776 0.048166104 0.16120547 0.27218127 0.20416993 0.22667326 0.10504736 0.15301137 0.5077281 0.43056244 0.31662595 0.39108193 0.6589421 0.70355225 0.6643908 0.6267326 0.5037763 0.66959864 0.6962169 0.6885649 0.6479839 0.5720729 0.68216765 0.7585014 0.78258115 0.77208114 0.8357526 0.8619102 0.82951874 0.7869715 0.85990393 0.86308235 0.83453286 0.80702686 0.82314193 0.8331686 0.82294726 0.7835624 0.83989084 0.8697039 0.86768353 0.5709443 0.8692734 0.8381456 0.4295085 0.45987424 0.75816125 0.4250396 0.6434939 0.6290313 0.4009302 0.4714676 0.53020185 0.60068715 0.35684702 0.4403299 0.43113142 0.4247042 0.3143909 0.43974566 0.4478277 0.43302605 0.40031624 0.2627219 0.43323103 0.43593997 0.40065774 0.38801262 0.21216342 0.25361487 0.38191503 0.36946166 0.36130065 0.28284472 0.48234713 0.42625448 0.36733106 0.49468958 0.55655926 0.51577306 0.46945426 0.4766729 0.5888403 0.60831064 0.5529066 0.60377127 0.6341082 0.65761137 0.6363034 0.5402811 0.6277235 0.66570663 0.6623053 0.63213444 0.6668205 0.6533283 0.7956135 0.85376245 0.7238152 0.77833116 0.8698114 0.8831159 0.53829306 0.8343226 0.8113115 0.34970784 0.3665275 0.32735914 0.65629065 0.3171894 0.35343495 0.5182925 0.55669993 0.41837665 0.3422363 0.2633415 0.19652851 0.26514614 0.09019637 0.6956704 0.6840259 0.6441628 0.63002545 0.19680488 0.16956145 -0.02915392 0.70671487 0.71508396 0.69235754 0.67224216 0.64212465 0.5725795 0.11067599 0.07355138 -0.030500855 0.68741834 0.6947642 0.59140724 0.5218743 -0.005598061 -0.04048744 0.6047486 0.64761156 0.6110691 0.5506222 0.10689764 0.1201517 0.14790586 0.5637158 0.5595745 0.55062413 0.61933756 0.6170257 0.20501783 0.2930328 0.3719778 0.48985007 0.5413179 0.56891143 0.4514485 0.18931061 0.42684937 0.46140495 0.1171315 0.059134282 0.39723283 0.2701849 0.43809658 0.35050404 0.5124275 0.59290075 0.5062957 0.62941337 0.66616297 0.5908406 0.5535674 0.657789 0.65464115 0.63785416 0.5745542 0.631458 0.6354928 0.6328119 0.65208757 0.60203135 0.6457606 0.7060292 0.70530486 0.68005013 0.76111 0.6648954 0.7915275 0.7810197 0.7012235 0.53705215 0.41989553 0.5011716 0.45467353 0.78613466 0.82034206 0.2702689 0.29370308 0.37470418 0.54379606 0.6993103 0.8102931 0.860672 0.85098857 0.24281771 0.17300135 0.39472973 0.7955055 0.71118975 0.34053558 0.3331842 0.28820902 0.40579996 0.6977955 0.7076055 0.3603043 0.35079068 0.2916537 0.6049479 0.35548395 0.34663385 0.34697676 0.524882 0.5645125 0.32014897 0.29906797 0.26971337 0.19167528 0.2402508 0.51711446 0.3649454 0.32576457 0.28644264 0.38345948 0.3808757 0.37600797 0.3136617 0.30344224 0.35443217 0.33523872 0.31998605 0.34313738 0.40912125 0.28293547 0.22419378 0.39601606 0.15607598 0.20127936 0.3566422 0.1523315 0.15130052 0.32649976 0.1416195 0.33167616 0.40120453 0.43718976 0.44141293 0.4634957 0.4619093 0.4891307 0.43534362 0.62955165 0.58477855 0.5190502 0.64839065 0.6448834 0.6400648 0.58160394 0.761047 0.8568397 0.8712328 0.80340016 0.1667537 0.26408434 0.68369347 0.6513366 0.24978122 0.26143584 0.47107053 0.23038192 0.22889973 0.33623272 0.025069399 0.31363854 0.6440377 0.64867437 0.6359492 0.5970069 0.56743526 0.561362 0.26545745 0.24466991 -0.017726492 0.68662477 0.53183806 0.47612625 0.08418675 -0.06159419 0.6325058 0.5273706 0.48270398 0.17367467 0.14380449 -0.122522846 -0.06965984 -0.03456834 0.50478244 0.24624199 0.2138421 -0.04588356 -0.069475055 -0.020399824 0.45711124 0.5742363 0.52211607 0.3928225 0.31289926 0.018990446 0.39778948 0.426625 0.53142023 0.5234071 0.17883736 0.10870327 0.0861295 0.4780441 0.08624261 0.3632412 0.43979642 0.047592714 0.15923868 0.4935311 0.5559844 0.5212277 0.5016643 0.35255098 0.32811254 0.39125675 0.46696353 0.54874 0.4893093 0.47409058 0.4991464 0.5316098 0.40484208 0.3230697 0.3497845 0.4296121 0.48581964 0.5152708 0.48494473 0.5639262 0.6055168 0.5341722 0.30607593 0.3014287 0.3418703 0.4194812 0.48596865 0.47747102 0.6082909 0.56011987 0.53819 0.5394023 0.28333324 0.34036657 0.54989076 0.48265532 0.49912533 0.52518874 0.517102 0.6209924 0.6088613 0.585356 0.43819714 0.50225973 0.5783193 0.5096961 0.56276655 0.51004595 0.55304825 0.549036 0.4601661 0.2436088 0.4050057 0.61470896 0.6921923 0.7998845 0.80274284 0.2651834 0.19285361 0.73564243 0.7340028 0.68630254 0.6269219 0.32184365 0.35059333 0.55605924 0.6022048 0.32702225 0.5334589 0.21859455 0.23256576 0.52528346 0.31528556 0.4834802 0.33498648 0.32056814 0.26206246 0.19529247 0.341922 0.11218735 0.0014471896 0.0076934956 0.21988562 0.26281565 0.10031378 0.26238766 0.11533235 0.35497457 0.17222752 0.1753235 0.38094056 0.38867772 0.40040702 0.43335056 0.57320994 0.6013003 0.5819545 0.5219261 0.5206496 0.53562456 0.5305347 0.619586 0.77381355 0.7688013 0.19241631 0.20643052 0.5274252 0.15507124 0.15519972 0.36969233 -0.14106935 0.20268695 0.008581169 0.31045642 0.015291408 0.534431 0.2859645 0.31285334 0.014733929 0.6012063 0.53362226 0.54111624 0.48405838 0.5151845 0.24892327 -0.018242555 -0.021440506 0.6016484 0.46591932 0.44472706 0.21112356 0.21263105 -0.15215692 -0.07348791 0.44370273 0.42449626 0.26297212 0.20069471 -0.15790445 -0.08187181 -0.035779424 0.46621558 0.43268377 0.37901998 0.34006506 0.4808696 0.45484352 0.40935767 0.016308352 0.38298798 0.4280233 0.4521231 0.38533816 0.33409706 0.09920407 -0.05746703 0.21042672 0.4552546 0.30318192 0.51934993 0.53253675 0.41994286 -0.046783034 0.12406472 0.14722311 0.05850981 0.23316425 0.371703 0.4827974 0.46446759 0.32956254 -0.031530194 0.096863 0.14748442 0.16609517 0.14372753 0.32362384 0.46400017 0.4700232 0.37726703 0.31037623 0.014166318 0.10806897 0.15757373 0.16878575 0.20409763 0.47090083 0.47126564 0.4153272 0.4591744 -0.08685279 0.11784543 0.13368657 0.15595517 0.15428725 0.17747329 0.4743066 0.46335906 0.48532906 0.445259 0.4476268 0.23580727 0.18734458 0.16590902 0.08570372 0.09633042 0.21645585 0.2777023 0.4314943 0.48722225 0.4538945 0.34279668 0.2863058 0.17012306 0.15809247 0.11400075 0.25651243 0.37009388 0.415927 0.42557687 0.42600596 0.23201522 0.21559685 0.50964546 0.4853895 0.4473793 0.45420173 0.4683017 0.4469054 0.421681 0.4436523 0.3771788 0.3616638 0.5467946 0.24355909 0.19729252 0.44804156 0.44187343 0.45239174 0.3834191 0.5492965 0.5688138 0.15236108 0.18738103 0.37541634 0.09523511 0.57690024 0.65124565 0.4982908 0.5594389 0.58903944 0.4821083 0.54134786 0.49806023 0.42107803 0.23361097 0.28303564 0.2718178 0.21224716 0.35791272 0.33164048 0.09116119 0.10186394 0.073299155 0.22906223 0.107255004 0.029203657 0.13706067 0.101901785 0.2749052 0.1128534 0.2555163 0.32342523 0.7040914 0.70900965 0.748267 0.7704907 0.31566012 0.29284596 0.6917992 0.7006077 0.7348292 0.5468788 0.3326169 0.66195315 0.65598774 0.6649221 0.66065073 0.53563744 0.42537946 0.458576 0.46007085 0.5808052 0.54394484 0.5138868 0.2573438 0.26069993 0.27589804 0.1896953 0.16479732 0.173532 0.18699096 0.07052435 -0.11420728 0.15121487 0.150973 -0.283754 -0.2514551 0.14558828 0.0077390224 0.0197808 0.022945374 0.013974108 0.216928 -0.006690722 0.24059248 0.43668175 0.32729346 0.35773772 0.19292115 -0.23491824 0.52802825 0.3507462 0.19398233 0.4036315 0.23198424 0.426708 0.3359921 0.44589657 0.36177403 0.35947096 0.41903555 0.4291215 0.341782 0.3131387 0.4030084 0.36361003 0.4087528 0.25438386 0.10638848 -0.16758852 -0.021145966 -0.10620881 0.2834104 0.36838588 0.007267926 -0.07893638 0.41267073 0.16679066 0.45338288 0.4484865 0.26879388 -0.09682503 0.44993305 0.43384892 0.38951796 0.14254206 0.14847904 0.07690654 0.4432773 0.41248068 0.25969833 0.12068347 0.030571816 0.10967836 0.41376203 0.39246875 0.4204308 0.18097715 0.047270894 0.09785955 0.090491585 0.34671673 0.51485604 0.50334805 0.30767715 0.19949794 0.2143019 0.2371481 0.22901124 0.17516606 0.07903582 0.55802995 0.55066735 0.5347966 0.45974702 0.36475784 0.3143397 0.2998181 0.30352122 0.25243926 0.17709534 0.27277783 0.38908154 0.2960669 0.58237183 0.5700575 0.5258662 0.33862263 0.38510066 0.43999487 0.4715276 0.48036677 0.4494812 0.45421857 0.48250902 0.4991085 0.49274096 0.49185407 0.49163926 0.40591168 0.40895617 0.40329793 0.41821826 0.40188533 0.4364414 0.2721207 0.13628486 0.037385568 0.0039780736 0.039037652 0.12876981 0.47790158 0.12346214 0.19714417 0.3207392 0.3110968 0.20906338 0.08013067 0.39602226 0.2805291 0.5134719 0.44432727 0.105954625 0.54719216 0.52678746 0.51449466 0.5450472 0.5199879 0.4664995 0.46502477 0.111418314 0.41628593 0.16298743 0.16272648 0.16907524 0.24388556 0.33183315 -0.0068138093 0.39038652 0.033556484 0.39148468 0.115303785 0.36296153 0.15931374 0.16596867 0.20500135 0.72947145 0.70422757 0.7435221 0.13244958 0.10372199 0.20664695 0.15323457 0.74449587 0.7224983 0.7073259 0.71524835 0.6385608 0.012947163 0.21831027 0.69886875 0.6905581 -0.12232175 0.29058576 0.6289403 0.59368336 0.30387074 0.3521716 0.3630091 0.62334657 0.68461573 0.7396326 0.7142319 0.51283574 0.53173757 0.52345514 0.5027219 0.45896453 0.46541393 0.61755383 0.69431007 0.78285015 0.7483234 0.4600769 0.46839815 0.43933266 0.64421797 0.7487564 0.7587493 0.72590864 0.6934409 0.67172325 0.20420504 0.22699454 0.18668987 0.24439472 0.15673715 0.16570184 0.1744138 -0.16742179 0.1656074 0.13234888 0.14068796 0.018699437 0.3531719 0.25718033 0.0073200464 -0.038316324 0.26328582 0.19772732 0.1703572 0.1472843 0.17957903 0.046535373 0.12937783 0.12733272 -0.13392174 -0.0524455 0.1658144 -0.14477256 -0.04030094 0.27831408 0.16836093 0.37585372 0.17617545 0.41623276 0.24396634 0.40385664 0.21813011 0.25704348 0.39586744 0.4147685 0.2883545 0.28035137 0.37797624 0.22550312 0.04887602 -0.15544179 0.12716368 0.23489049 0.3074375 0.40474457 0.049799763 0.36530387 0.35359806 0.30030966 0.1859355 0.038358413 -0.097306095 0.35103387 -0.19778846 -0.012472719 -0.31658792 0.31561905 0.30292413 0.26371372 0.72912157 0.6154015 0.41104543 0.5145788 0.11457056 0.76358926 0.72048354 0.5543624 0.11768509 0.33040714 0.5696029 0.58849436 0.5619136 0.48285025 0.37630904 0.3381609 0.32496306 0.31589425 0.22536142 0.1884019 0.36511087 0.46525204 0.5194216 0.41635436 0.49931294 0.49599025 0.52014375 0.5398545 0.47078905 0.4973867 0.49938044 0.47822887 0.4834866 0.52303 0.5472752 0.7458925 0.7567141 0.85591924 0.72417295 0.76082987 0.8664064 0.84901327 0.6943568 0.8294388 0.83114326 0.5290743 0.6325962 0.42532387 0.40398657 0.41253242 0.37270468 0.38387188 0.36076576 0.104216926 0.17299224 0.12281279 0.4120388 0.39620465 0.41814697 0.42369685 0.24532494 0.27191135 0.42354193 0.16507274 0.12549327 0.44053608 0.45572156 0.052051567 0.11361865 0.028254587 0.34481364 0.034558732 0.42002493 0.5137872 0.5448834 0.5588124 0.55101216 0.52242243 0.4744582 0.13440473 0.18936445 0.13240945 0.10425629 0.15770921 0.09349428 0.042495355 0.3415507 0.39242834 0.40868753 0.41247457 0.10410099 0.3983347 0.29733828 0.15937802 0.15292835 0.23813236 0.20494816 0.7450075 0.73204017 0.72713685 0.6268785 0.1631584 0.04286249 0.75022304 0.12621191 0.70932955 0.18028738 0.51008296 0.5986613 0.64292145 0.6226592 0.63599634 0.58038616 0.22868197 0.24800596 0.23510368 0.4825872 0.54122156 0.6460334 0.7074074 0.67794347 0.65418947 0.5004904 0.42362642 0.06950231 0.12660107 0.5112022 0.5569114 0.7087928 0.64510274 0.4004415 0.39858994 0.35420433 0.33870366 0.3099116 0.24580488 0.5199812 0.6445832 0.64189804 0.34376055 0.32983184 0.5511775 0.6399825 0.51469433 0.5932404 0.47965455 0.17081921 0.23980266 0.28981447 0.30074838 0.30634868 0.1780235 0.17382826 0.15372731 0.28595182 0.3032359 0.2569966 0.13679516 0.15733387 0.15181464 0.18529537 0.51861644 0.41835856 0.016325258 0.059155285 0.03044343 0.4558792 0.39003837 -0.020357156 -0.05433345 0.15553044 0.15802443 0.515441 0.5578839 0.56808937 0.42854014 0.112941734 0.17488708 0.12442997 0.009526413 -0.121431395 0.4733572 0.50332344 0.53230095 -0.045893125 -0.05479458 0.05607745 0.40181813 0.49836665 0.15374544 0.15193895 0.31690517 0.13740079 0.14990418 0.3121702 0.33290103 0.13143282 0.20565422 0.33071464 0.33500278 0.14155504 0.015751477 -0.022920083 -0.01980006 -0.05949264 0.049616694 0.010951318 -0.09526923 -0.049760465 0.24494803 0.25325513 -0.1511104 0.11353083 0.40493515 -0.14875093 0.14781114 -0.07747069 0.5543046 0.62382346 0.52533543 0.08925468 -0.08101505 0.1740213 0.24272141 0.68069094 0.67383945 0.49679613 0.32970574 0.0855746 0.3248322 0.7757541 0.7887782 0.7069463 0.48657665 0.798612 0.7968104 0.74739444 0.501258 0.48699278 0.35279176 0.33104965 0.29384074 0.27679574 0.23908263 0.18889672 0.15921909 0.44667432 0.49184644 0.35651907 0.30690736 0.2138674 0.36203778 0.54806453 0.53683853 0.36817127 0.41073117 0.4624476 0.45778397 0.44036084 0.4783217 0.5287281 0.5539458 0.474472 0.50348717 0.5425143 0.8086574 0.8312026 0.7402328 0.77926856 0.8384118 0.85525036 0.6910533 0.8603034 0.8113955 0.6187068 0.7274519 0.3461368 0.39470142 0.357748 0.3307348 0.40051752 0.3462618 0.43225825 0.4250707 0.43295178 0.30288166 0.42669904 0.37790722 0.14673936 0.31138673 0.33979416 0.41774386 0.4186988 0.34690654 0.41706818 0.30218765 0.42103165 0.4248231 0.18448672 0.20427665 0.43383995 0.44345218 0.47349027 0.4745764 0.45831537 0.4847154 0.03248596 0.07143231 0.5277514 0.5158435 0.124207035 0.5135363 0.49667275 0.061147638 0.16664484 0.2919141 0.10646841 0.35581768 0.04033088 -0.005734846 0.38537678 -0.08230507 0.40798897 0.04271329 0.3650225 0.1197369 0.29081333 0.3179617 0.2577573 0.13580464 0.10340271 0.71848625 0.6664598 0.6468652 0.46716154 -0.103992715 0.72781867 -0.0017696321 0.7218529 0.09393048 0.44118547 0.49103785 0.53377265 0.5909415 0.41835618 0.15717018 0.4180403 0.44082218 0.60567874 0.59403926 0.37082282 0.33215922 0.08732397 0.46582618 0.5898477 0.3100646 0.29616645 0.18762471 0.17357376 0.46735942 0.4930725 0.50195724 0.3117751 0.31731224 0.306661 0.2114849 0.44017088 0.4297213 0.33773422 0.35325468 0.45061687 0.09411408 0.334726 0.15597542 0.30089897 -0.09499169 -0.026502162 0.31216562 0.30391207 0.10286677 -0.018664002 0.22287993 0.644311 0.607742 0.49621996 -0.017625641 0.13537431 0.080553584 0.6017563 0.61343104 0.73156124 0.6653032 0.5260743 0.29964098 -0.0071035586 -0.028865227 0.50772977 0.5706273 0.5948304 0.59554195 0.687333 0.6167178 -0.026128415 -0.19397084 0.09451752 0.101745665 0.005113514 0.5463086 0.57496566 0.5717201 0.5589478 0.45469725 -0.18008067 0.05937289 -0.10706948 0.08233613 0.522777 0.52015233 0.28188872 0.19291188 0.46920425 0.46142372 0.12058545 0.3984033 0.12912852 0.17961274 0.12384546 0.113257125 0.25825086 0.21644312 0.07096016 0.2659185 0.21193938 0.05444906 0.09781633 0.042884182 0.051246822 0.1749967 0.11072752 0.16914319 0.13787046 0.058782745 0.17502531 0.16007441 0.0032091495 -0.028186958 -0.038783226 -0.19952138 -0.11074349 -0.16272987 0.23043399 0.05425479 0.37278795 0.5031563 0.45767486 0.18827055 0.24968714 0.405299 0.46534637 0.63160205 0.6181413 0.075354606 0.3904298 0.4783365 0.68973 0.7417832 0.61358607 0.07440092 0.19194202 0.76054156 0.7286053 0.6937604 0.55668557 0.32246208 0.29937327 0.24024093 0.22508453 0.17207026 0.45499188 0.41679537 0.2384259 0.1483826 0.13241935 0.20170055 0.5074189 0.28154042 0.33206025 0.29070935 0.26984116 0.2661762 0.5612831 0.52396667 0.39452416 0.48007452 0.79416895 0.8286691 0.84910905 0.73127985 0.7606465 0.8336704 0.7925265 0.6743016 0.7112905 0.43616602 0.64653444 0.39179727 0.3927674 0.36554828 0.44248232 0.3385681 0.46179813 0.32969183 0.31931967 0.3040816 0.27199778 0.2742253 0.26273036 0.39899617 0.35943702 0.4287205 0.3331505 0.41216472 0.30021706 0.41748163 0.42704368 0.24068639 0.38888425 0.45977652 0.08890538 0.45961815 0.4020813 0.40673992 0.11517007 0.20462917 0.30539408 0.18916778 0.3179089 0.13281873 0.11709428 0.3232555 0.33136305 0.04118405 0.34460804 -0.08145503 0.31793737 0.011031546 0.30819166 0.038136475 0.27547157 0.2617319 -0.13817585 0.21365148 -0.0045947563 0.6449575 0.571258 0.46377385 0.3981654 0.18272026 -0.123632655 0.5190902 0.5455234 0.5413585 0.67130876 0.01862105 0.5082835 0.4661696 0.32981536 0.6899046 0.000894621 0.35629597 0.40074056 0.3011955 0.31205517 0.4678568 -0.0056999717 0.005145762 0.37614912 0.43459547 0.27009448 -0.04689205 0.4018576 0.3949172 0.25521606 0.20864415 0.12924832 0.08996528 0.39400512 0.41798577 0.29106632 0.2755877 0.2943678 0.31066474 0.26857495 0.13340205 0.18401149 0.157915 0.111835256 0.4051817 0.29211602 0.31340647 0.27392447 -0.123448335 0.23692976 0.69896054 0.62411666 0.3927642 0.19934802 0.14115305 0.7838346 0.7138035 0.621369 0.44885552 -0.11715222 -0.14830318 -0.01940814 0.54064095 0.5913258 0.61064017 0.60527337 0.823599 -0.014462058 -0.122455366 -0.13978046 0.49810967 0.60120344 0.56953067 0.76842743 -0.114611074 -0.19185421 -0.11418171 -0.08762562 -0.10148567 -0.17997932 0.3541257 0.5150713 0.6452563 0.5007968 0.46209443 0.44201058 0.33055845 0.37984124 0.3760782 0.10097496 0.32475114 0.3427644 0.18900804 -0.2531968 0.34717035 0.035597257 0.41498315 -0.18174638 0.38361326 0.3121512 0.04697233 0.30533057 0.18027854 0.17316978 0.17796962 0.1969242 -0.002883574 -0.030298587 0.20018695 0.1702404 -0.035534088 -0.06051846 0.19944865 0.07545589 -0.092572816 0.0965212 0.24513629 0.10543659 0.24235713 0.28727782 0.26102865 0.37271774 0.441369 0.43968114 0.4595822 0.55809355 0.4467486 0.6246384 0.10692023 0.39285725 0.6270139 0.6655768 0.61017245 0.60065764 0.34087527 0.116400585 0.124332584 0.07346395 0.0847361 0.14023125 0.045842648 0.40061033 0.5789852 0.20051175 0.47143573 0.44190168 0.24508834 0.23674268 0.23279932 0.12793455 0.14855175 0.53138626 0.4662829 0.6400895 0.6115757 0.68253124 0.732074 0.8101555 0.7734676 0.743838 0.6083288 0.65860796 0.7094408 0.49117926 0.68748915 0.38697478 0.45755687 0.21312645 0.30757385 0.32304427 0.50112057 0.29290262 0.48548895 0.2793041 0.4888785 0.47957924 0.3048903 0.41182727 0.41499484 0.3849976