# vtk DataFile Version 2.0
Really cool data
ASCII
DATASET POLYDATA
POINTS 6844 float
-20.614002 27.689104 20.908062
-20.711023 27.56846 21.585798
-20.734493 27.946064 22.091005
-20.62024 28.159286 21.01661
-20.715944 28.27731 21.722944
-20.677479 28.308254 22.1212
-19.775692 16.096762 18.382914
-19.669018 16.987383 17.230051
-19.848257 16.620659 17.69675
-20.031414 16.688156 18.544561
-19.935877 16.510424 19.00503
-20.01479 17.265186 17.947317
-20.124018 17.56421 18.457706
-19.947937 17.441902 19.248735
-19.746222 18.020864 20.479301
-19.716614 18.046535 17.448341
-20.02543 18.284863 18.701153
-19.851343 18.617138 20.2631
-19.6333 18.730324 21.048328
-19.708244 18.86041 17.846956
-19.828808 18.909637 18.44379
-19.848783 19.285616 20.428228
-19.790558 26.262774 21.790365
-20.05227 26.976818 20.183956
-20.329998 27.039852 20.712282
-20.325226 26.8472 22.24382
-19.768938 26.69425 23.035938
-19.719896 27.039333 23.941822
-20.089848 27.493902 20.225142
-20.403675 27.563152 20.57875
-20.06371 27.24446 23.316456
-19.73805 27.64665 24.049923
-20.009974 28.100817 20.226023
-20.354622 28.183989 20.641266
-20.55519 28.406176 21.21422
-20.49081 28.568907 22.342043
-20.185715 28.376347 23.000132
-19.628906 28.269615 23.989756
-20.107388 28.851109 21.023642
-20.175808 28.970324 21.593222
-20.190445 28.907404 22.369665
-19.099184 15.974071 17.139696
-19.249537 15.822244 17.755602
-19.38761 15.719512 18.50564
-19.48541 15.867754 19.009598
-18.950235 16.043818 20.25703
-18.890116 16.91675 16.158468
-19.056152 16.488714 16.606043
-19.406044 16.835707 20.521896
-18.932648 16.843203 21.042536
-18.815983 17.246237 16.140602
-19.20869 17.376688 16.574715
-19.524113 17.622198 20.593853
-18.994638 17.406939 21.303759
-19.355373 18.321993 17.10377
-19.473608 18.685421 21.310171
-18.785694 19.158417 17.163202
-19.187973 19.457087 17.805183
-19.501839 19.358112 18.321554
-19.404741 19.141254 21.480625
-18.78388 20.115648 17.709194
-19.273354 20.577608 19.667809
-19.386688 20.312138 20.308811
-19.318747 19.990429 20.997154
-18.957834 20.945826 20.361086
-18.888416 25.84986 20.431238
-19.62372 26.013416 22.73974
-19.13623 25.992126 23.588886
-18.91601 26.125862 24.044186
-19.5864 26.41092 23.48456
-19.250944 26.663954 24.220871
-19.460762 27.616228 19.877026
-19.454582 27.641104 24.406717
-19.003244 27.570475 24.753836
-19.6239 28.13576 20.064669
-19.211054 28.301374 24.39417
-18.985748 28.22439 24.63001
-19.572075 28.988123 20.90071
-19.527966 29.22114 21.816051
-19.509996 29.123463 22.501335
-19.153938 28.71725 24.113014
-18.38034 15.370495 18.51841
-18.015734 16.166452 16.06026
-18.19753 15.815524 16.589842
-18.645967 15.882827 20.132933
-18.285093 16.574535 15.905299
-18.392405 16.59372 21.29216
-18.494864 17.343035 15.886371
-18.522856 17.27013 21.517288
-18.08261 18.050879 21.985361
-18.271307 17.973913 16.055798
-18.694418 18.330063 16.467726
-18.741655 19.630466 21.759699
-18.341225 20.416346 17.668968
-18.049028 20.40323 21.65064
-18.355106 21.435843 18.58135
-17.967102 24.67557 20.459492
-17.967508 24.565912 23.399065
-18.339622 26.084595 19.910938
-18.56923 26.165533 24.337387
-17.937061 26.111181 24.690035
-18.462034 26.596199 24.750818
-18.566692 27.39949 19.951427
-18.409561 27.707266 24.923008
-18.718304 28.179884 20.121832
-18.38364 28.527233 20.677135
-18.700207 28.542568 24.492634
-18.499445 28.03662 24.827312
-18.964777 28.976551 21.12993
-18.553236 28.98249 21.575201
-18.48376 28.965702 23.447428
-18.600218 28.745655 24.229298
-17.606352 15.288552 17.510887
-17.711536 15.769934 16.386692
-17.278181 15.732534 19.951649
-17.83148 16.1345 21.04209
-17.663857 16.620974 15.762838
-17.328985 16.465572 21.303514
-17.809694 17.156128 15.621754
-17.47031 18.765177 16.54166
-17.545528 19.282955 22.20414
-17.271502 20.384018 17.273561
-16.826487 22.355545 22.7625
-16.732788 23.51822 23.622993
-17.237696 26.649317 19.876537
-17.592468 26.840084 24.910536
-17.721289 27.26139 20.107876
-17.777346 27.495827 24.944271
-18.031256 27.967644 20.378334
-17.875116 28.493681 24.41025
-17.746714 28.122522 24.684725
-18.161066 29.006878 22.39478
-17.771915 28.796474 23.680464
-16.990334 15.403898 16.953087
-16.545082 15.34617 17.37398
-16.935284 15.347542 18.257603
-16.173025 15.512824 17.215965
-16.282667 16.57668 16.026552
-16.7114 16.378633 21.314909
-16.70061 20.232512 16.90786
-16.618332 20.563316 22.33087
-15.996388 20.908869 17.127989
-16.500153 21.402063 17.400011
-16.136208 21.999588 23.304594
-16.413713 24.969147 24.195108
-16.509405 25.003328 19.70566
-17.002033 26.279343 19.819574
-17.06975 26.614609 24.704975
-16.718023 27.318773 20.711447
-16.663635 27.448702 24.24198
-16.8232 28.255928 22.889664
-16.428238 27.827757 23.394896
-17.114252 28.198954 23.975008
-14.816437 15.282161 17.635992
-15.470672 15.325298 18.831852
-15.410434 14.939029 19.854986
-14.896737 15.056805 21.053005
-15.261892 15.815832 21.446318
-14.919123 16.166964 21.71965
-14.898567 17.218842 22.466368
-15.308831 18.181124 23.11448
-15.076088 19.823969 23.0584
-15.295514 20.454014 16.97181
-15.565836 21.881865 23.660448
-15.612378 21.947819 17.6092
-14.84591 22.487349 24.362148
-15.372985 22.880632 18.28634
-15.339025 23.778694 19.112421
-15.490436 24.04605 24.0005
-15.146655 25.281267 19.692791
-15.474893 25.999033 20.219572
-15.861366 26.522402 20.60404
-16.199854 26.30709 24.164917
-15.594837 26.923332 21.137133
-15.687603 26.978903 21.226332
-15.756385 27.31695 22.435734
-15.801161 27.190973 23.220531
-16.191286 27.101744 24.006609
-16.239271 27.635344 22.57364
-13.709125 4.133018 9.923103
-13.787808 4.114433 10.443534
-13.688952 4.6262093 9.313969
-13.9643345 4.75503 9.863901
-14.076657 4.724956 10.363391
-13.839602 4.6413994 11.187628
-13.668839 5.148502 11.948837
-13.911466 5.340508 9.823852
-14.073628 5.2983737 10.42788
-13.948073 5.4792266 11.207814
-13.695423 5.6128116 12.090706
-13.784235 5.757884 10.01885
-13.806084 5.907336 10.530889
-13.601459 6.411424 11.769356
-13.61633 6.24207 12.369857
-13.62585 10.685006 16.730616
-13.604301 10.526243 17.607529
-13.546121 10.664738 17.888964
-13.722488 11.848364 16.579496
-13.769616 12.446453 16.74859
-13.698229 14.644663 15.557465
-14.300697 17.090927 23.191505
-14.505141 17.642273 15.319801
-14.592129 17.513517 23.473963
-13.938751 17.92468 24.323795
-14.231723 18.344551 15.52873
-14.485522 18.777878 24.130253
-13.887322 18.699116 24.67006
-14.07509 19.992258 24.267908
-14.696787 21.769379 17.635368
-14.447083 21.510706 24.49879
-13.8488035 21.170858 24.790178
-14.408573 22.460344 18.031597
-14.195534 22.290829 24.62706
-14.409911 22.86622 18.347904
-14.617997 23.054823 18.397898
-14.41041 24.308432 19.810413
-14.969048 25.494259 19.962105
-14.951333 25.756138 20.130976
-14.428668 25.764473 20.743515
-14.773054 26.280838 21.347942
-14.799334 26.438509 22.602652
-15.180684 26.977627 22.594187
-12.834631 3.4047465 10.305553
-13.027761 4.0113387 9.082823
-13.206433 3.8054514 9.574723
-13.197824 3.6559784 10.437491
-13.179793 3.9206882 11.172804
-13.069242 4.216331 11.880898
-13.233606 4.6116357 9.035234
-13.489637 4.330453 9.345724
-13.5453005 4.4143314 11.494664
-13.178538 4.932847 12.48095
-12.860249 5.0472503 13.008594
-13.239747 5.0987897 9.079684
-13.643424 5.5857086 9.576829
-13.3993435 5.424076 12.541326
-13.163172 5.731372 13.024374
-12.886579 5.9096384 9.33846
-13.391815 5.9225116 9.724948
-13.484988 6.3349237 10.886639
-13.4705515 6.5493774 11.627616
-13.428998 6.409378 12.565856
-13.205885 6.5670185 12.889733
-12.907063 6.7716584 10.841472
-13.157506 6.978386 12.156241
-13.109132 9.2562685 17.036818
-13.033831 9.264487 17.589842
-12.893736 9.287436 18.127636
-13.075824 9.834325 15.873291
-13.200045 9.6343 16.719292
-13.368018 9.789119 17.632805
-13.200133 9.7257185 18.086342
-12.888998 10.050394 18.6101
-13.145033 10.838243 15.392184
-13.059608 10.136251 18.534641
-13.221787 11.136357 15.823442
-12.714561 12.587595 14.732603
-12.723249 12.260275 18.672153
-13.590793 14.005151 19.246008
-13.057197 14.138709 20.041767
-13.041111 14.772974 21.578306
-13.56208 15.095581 21.649574
-12.738325 15.547761 13.616159
-13.673831 15.752323 22.049942
-12.6493025 16.801474 13.181521
-13.006466 16.318071 13.843887
-13.793462 17.231665 23.660511
-12.915182 17.146921 13.463712
-13.187744 17.653196 24.546452
-13.194422 17.992655 24.819418
-13.492049 18.188837 14.582498
-13.389746 18.630053 25.014355
-13.131275 19.023829 15.623063
-13.26276 19.325386 25.139051
-13.100044 20.034475 24.951393
-13.74082 21.081266 17.920975
-14.119069 22.192657 18.070625
-13.643874 22.587267 18.738476
-13.348382 22.119356 24.81573
-13.91456 22.768583 18.505114
-13.166385 22.74469 24.480942
-14.149225 23.695862 19.312403
-13.479087 23.955984 20.144917
-13.998774 24.114847 23.926239
-14.252802 25.430056 20.59103
-13.637035 24.95955 21.27347
-13.582306 24.86661 22.02945
-12.58115 3.393629 9.810427
-12.379524 3.3345037 10.481936
-12.437303 3.9084296 8.935266
-12.450841 3.5058773 9.39522
-11.994421 3.6015406 11.550707
-12.481191 4.5163965 8.738433
-12.67548 4.5569315 12.554679
-12.5127 4.5080404 12.722685
-12.478617 5.2787867 8.911705
-12.452868 5.651981 13.4857
-12.613707 5.9320364 9.351814
-12.5647545 6.2028155 9.623619
-12.743609 6.6213994 10.251242
-12.296281 7.0625453 11.22227
-12.168156 7.332646 12.529307
-12.409829 6.9737883 13.1892605
-12.532549 9.34565 15.579925
-12.010158 8.950822 16.348116
-12.7039795 9.071123 17.80985
-12.441458 9.215038 18.489199
-12.485791 9.93475 14.941774
-12.620593 9.752055 18.677298
-11.935204 11.263712 14.17613
-12.200865 11.737091 14.486451
-11.898629 12.685667 13.73217
-12.590155 13.995084 20.24473
-12.81591 14.166652 21.017626
-11.848999 14.797762 12.642166
-11.9308 15.527336 12.297705
-12.12027 15.416106 12.621357
-12.568718 15.351596 13.414855
-12.754822 15.293459 22.158558
-12.147568 16.74983 12.719849
-12.341491 17.412407 13.0429
-12.666989 17.50368 24.55773
-12.388631 17.82921 24.81565
-12.125903 18.084963 13.221685
-12.156929 18.433039 13.630537
-12.5284605 18.622746 25.166449
[...]
POINT_DATA 6844
SCALARS features_00 float 1
LOOKUP_TABLE default
0.7575971 0.7507495 0.7851267 0.7810339 0.80132484 0.810778 0.6397815 0.6205412 0.63506126 0.62556237 0.6163676 0.61153686 0.6028074 0.58952653 0.50462925 0.5365568 0.5692266 0.49587315 0.49193126 0.46535975 0.50000364 0.47816056 0.6830779 0.73845863 0.7282388 0.7190664 0.6197526 0.68570924 0.76308656 0.7571024 0.6952611 0.7522665 0.7824242 0.7761224 0.79440093 0.82974255 0.83185494 0.78902507 0.8231615 0.8379861 0.8445817 0.65586793 0.6569468 0.64282316 0.63151217 0.55476993 0.6126957 0.63154554 0.52563375 0.5023502 0.5953743 0.583078 0.5069539 0.49130145 0.49200034 0.4892148 0.3743534 0.3873151 0.43429276 0.49336502 0.33878452 0.47362036 0.48131204 0.4985535 0.46113303 0.6797454 0.55296195 0.54458034 0.60016453 0.6048328 0.67969143 0.79017115 0.7654262 0.77990484 0.81112975 0.7874466 0.78677136 0.86845195 0.8889487 0.8794892 0.7791853 0.62403274 0.63109446 0.64384 0.55468214 0.6225013 0.48442334 0.5866666 0.478764 0.47145417 0.5224652 0.4859478 0.49333805 0.31516486 0.40654415 0.43439856 0.5055207 0.35876533 0.6141623 0.6502583 0.7082025 0.76374245 0.6821556 0.8002697 0.7711713 0.75987107 0.77876174 0.7904428 0.8766211 0.8567469 0.7755178 0.76477635 0.518301 0.625208 0.40956277 0.45359868 0.6156942 0.38847446 0.5931034 0.3197301 0.34383488 0.26514035 0.08292052 0.2784742 0.42957324 0.81739986 0.5238253 0.8209499 0.60700625 0.75945723 0.78375524 0.81001973 0.7307482 0.47974485 0.3320573 0.29211295 0.29638338 0.5819082 0.21880226 0.24367115 -0.08455933 0.25845098 0.26444688 0.09193635 0.47117534 0.27963158 0.3753822 0.76918745 0.37232476 0.69227636 0.5214752 0.5284711 0.69833744 0.07191439 0.1175607 0.24577504 0.2284638 0.0643648 0.059161503 0.14615975 0.2882262 0.18719932 0.25665638 0.17523648 0.27002513 0.33172145 0.23964319 0.23260212 0.316809 0.2697691 0.310526 0.3345453 0.6211311 0.36439696 0.3718261 0.39588976 0.4523645 0.5869961 0.41418177 0.9208417 0.90359944 0.92605585 0.92076176 0.91319776 0.8207515 0.7063937 0.87657195 0.87230927 0.8107323 0.7147163 0.8193463 0.79736704 0.73482215 0.7132906 0.51246244 0.49113786 0.47652572 0.4446654 0.37636864 0.09584071 0.23286718 0.25624645 0.29586172 0.3909418 0.28110448 0.38776025 0.4267099 0.364923 0.27766043 0.32792225 0.36436778 0.2516859 0.3916781 0.24095815 0.24092409 0.2496345 0.2885481 0.30016756 0.30873635 0.33239132 0.35225755 0.37566608 0.81193006 0.9142992 0.90100473 0.85079217 0.7558668 0.6337894 0.92506015 0.9320477 0.7408433 0.6287761 0.5825814 0.8890778 0.84501356 0.6644381 0.6489998 0.77992475 0.7911991 0.7481143 0.72556007 0.7062307 0.70173156 0.67820644 0.689231 0.4735397 0.4280511 0.38900375 0.5155841 0.51048934 0.45782435 0.43023837 0.37917846 0.43210566 0.40423924 0.4413315 0.18940043 0.24145243 0.102920964 0.24083659 0.2784939 0.24133042 0.2816374 0.17131582 0.34017125 0.3031928 0.3092239 0.34521267 0.4006723 0.42164716 0.34006014 0.43868536 0.3543365 0.4362714 0.39903983 0.2569387 0.25581396 0.22556806 0.41031408 0.23173685 0.42738688 0.22604087 0.25982276 0.46421596 0.30611765 0.31344908 0.29005015 0.81810725 0.74955654 0.86338055 0.82953066 0.59098196 0.905604 0.5604064 0.53518355 0.8508781 0.5979823 0.75942945 0.71025777 0.67679286 0.5771066 0.6683009 0.7131318 0.49821 0.45274854 0.3839229 0.32278648 0.4444114 0.3328175 0.2339934 0.23086625 0.08003767 0.23922418 0.27269518 0.2845978 0.35172474 0.33069885 0.27776155 0.24103737 0.35462943 0.3624943 0.37851462 0.39786536 0.3624075 0.35983083 0.4229558 0.36975142 0.40380663 0.42931962 -0.2103939 0.37428483 0.38613206 0.17945871 0.40762302 0.41448945 0.20627388 0.2522852 0.34058425 0.40115905 0.27845863 0.28869772 0.7085209 0.67142797 0.59808826 0.7582521 0.7307466 0.4892736 0.40659618 0.7930193 0.337511 0.7604079 0.6010405 0.30114225 0.34863418 0.28554672 0.30019444 0.35866123 0.29842883 0.4313041 0.0016795732 0.33661363 0.36953825 0.3992834 0.39854494 0.17957444 0.38123637 0.36884865 0.36707023 0.31131014 0.35675058 0.35360622 0.36451274 0.34982988 0.37876272 -0.0041201115 -0.16050416 0.37215602 -0.017263083 0.082200676 0.37701428 0.15831141 0.22453202 0.37084353 0.38734204 0.21757883 0.49953577 0.62469965 0.6151202 0.32335576 0.5802575 -0.072734326 0.5738695 -0.16568026 -0.00861538 0.2001028 0.30772907 0.32801187 -0.038749672 0.32005024 0.3690442 0.37361854 0.23209935 0.18645753 0.37108904 0.16784641 0.08408299 0.37669557 0.1454881 0.4675187 0.3692854 0.3860317 0.3981892 0.36135292 0.38581952 0.36152756 0.2575522 0.40623528 0.424998 0.42293224 0.17531759 0.3675164 0.3477689 0.3389524 0.10628127 0.06506939 0.24029778 0.365673 0.37841195 0.33338672 0.12622479 0.34737566 0.06549882 0.32985103 0.22050935 0.3445453 0.52692187 0.4843005 0.50062835 0.5060575 0.30024797 0.3378505 0.3345374 -0.18839788 -0.019081933 0.23227434 0.3438928 0.37879682 0.40653253 0.39301342 0.2539914 0.20770079 0.1468513 0.2674943 0.41660392 0.10001617 0.49823514 0.4805826 0.43888056 0.41517037 0.3617909 0.41103047 0.41195583 0.4366417 0.441154 0.40934435 0.4116218 0.39053977 0.39697665 0.3194948 0.35181782 0.33210367 0.37151212 0.40676343 0.39254504 0.3065212 0.120078266 0.3568527 0.12728274 0.049931575 -0.08427142 -0.044226162 -0.17474593 0.04614594 0.30692938 0.36721507 0.20958126 0.16593929 0.21785825 0.27338234 0.084931456 0.3525065 0.021400802 0.5124689 -0.04209073 0.53057516 -0.06385978 -0.026703909 0.4671445 0.39017326 0.40608424 0.46064413 0.48870033 0.46597385 0.54754424 0.4292441 0.40342292 0.5335667 0.38467726 0.37893987 0.38708156 0.38501543 0.25994492 0.21919805 0.5566072 0.21403953 0.4235484 0.43132922 0.3227166 0.30885836 0.33345562 0.3760616 0.30001384 0.3182708 0.10663824 0.07692295 0.26331645 0.36866102 0.39221832 -0.033057794 0.38798052 0.3843066 0.2957551 0.23199812 0.26042485 0.22248173 0.151462 0.43653482 0.06906735 0.4753703 0.025698006 0.43498376 0.4760275 -0.033783644 -0.047686458 0.42824513 0.34156418 0.3932988 0.15335852 0.38333157 0.52748305 0.4550238 0.5791517 0.5325521 0.5825171 0.60139674 0.5109252 0.45451206 0.6765647 0.44592357 0.44083148 0.7113724 0.41869593 0.44852358 0.39281362 0.21161328 0.27242485 0.62844896 0.7107414 0.28084373 0.37211722 0.4143206 0.44435865 0.5580146 0.33269843 0.34431264 0.29814467 0.33118936 0.29844934 0.24831447 0.28050554 0.2206162 0.2338961 0.4157435 0.38528877 0.392626 0.3866223 0.35693106 0.42414105 0.3833353 0.28229105 0.30764535 0.21101624 0.18199062 0.17173542 0.26332867 0.23615253 0.41616789 0.3842544 0.3580764 0.3970279 0.320033 0.20977119 0.49509662 0.55867296 0.38910985 0.55326074 0.58894 0.5666326 0.6002778 0.66875434 0.55117685 0.5264236 0.7360245 0.7369057 0.4887581 0.48573634 0.48517466 0.74178475 0.7471796 0.31880963 0.29164296 0.27869785 0.6259402 0.6913623 0.3719098 0.472606 0.510603 0.33420902 0.34379622 0.20999381 0.27901536 0.27892148 0.22624783 0.18470082 0.19732122 0.24889424 0.4298541 0.3324893 0.37539232 0.4732747 0.4620335 0.34955278 0.3621804 0.47313023 0.27250972 0.24459001 0.43168527 0.19018184 0.31666398 0.18274622 0.25328866 0.19839954 0.19516978 0.26027846 0.21870875 0.18119843 0.27484483 0.16786861 0.3288781 0.4506051 0.121283405 0.5451576 0.52818567 0.15881315 0.56223553 0.5503576 0.5002482 0.29892194 0.23359819 0.19450365 0.5436274 0.6554221 0.7055156 0.5415809 0.51695895 0.49156654 0.3594015 0.32356375 0.30774313 0.30237526 0.29511908 0.5718335 0.72116107 0.74795735 0.5006374 0.33219975 0.3168336 0.30733606 0.28219357 0.6771952 0.71575636 0.74185616 0.28203237 0.44908583 0.6322402 0.6743529 0.7091 0.40977734 0.43879622 0.4462362 0.3974492 0.3877567 0.35892165 0.21222168 0.3143281 0.27682406 0.4578668 0.43496153 0.28004366 0.49559885 0.21276803 0.33345848 0.495548 0.27485317 0.44661453 0.28865978 0.24371499 0.19192287 0.19395816 0.23057917 0.20152318 0.19630978 0.20317258 0.15245241 0.18112694 0.09868067 -0.1324111 0.059794843 0.07469697 -0.011660993 0.30330133 -0.16863954 -0.03137333 0.15591955 0.5149277 0.37450257 0.0143586695 0.27952123 0.18154037 0.5072663 0.2781175 0.28824154 0.47642002 0.49311334 0.5559437 0.43336385 0.46113986 0.46650696 0.49169037 0.418163 0.2436964 0.15410292 0.40381613 0.45184547 0.14611381 0.40846294 0.21609223 0.14171919 0.17751938 0.18434441 0.18157701 0.18095377 0.15362087 0.16843875 0.18734996 0.18187532 0.14059228 0.15664633 0.16128144 0.3236449 -0.16484928 0.34885436 0.283628 0.48583657 0.52428055 0.63878864 0.6239245 0.4440773 0.46581483 0.5657498 0.51565415 0.4046894 0.4478686 0.3624338 0.29741547 0.19408754 0.04217398 0.26094037 0.39359105 0.36395523 0.04244104 0.3388749 0.3186288 0.07066745 0.21161455 0.17814526 0.079273894 0.08723886 0.17310213 0.18556571 0.1907845 0.20374122 0.30682322 0.18375921 0.20927922 0.4113472 0.23313317 0.22836389 0.20045842 0.053714506 0.5347175 0.4703231 0.25017518 0.26556462 0.3147113 0.48659727 0.5835957 0.68394923 0.6529422 0.61445075 0.39536443 0.42301548 0.5544577 0.34703934 0.4252577 0.32184374 0.12685424 0.27320322 0.22911823 0.20843635 0.06977018 -0.057998344 0.06413396 -0.03220305 0.1362377 0.18230931 0.1853984 0.2612851 0.20206112 0.20172802 0.48544616 0.42091388 0.20530175 0.22626266 0.4771592 0.23367596 0.31760898 0.5904285 0.30160186 0.24194229 0.42558298 0.56302977 0.4711473 0.573584 0.690217 0.69912684 0.40197048 0.6106351 0.4554454 0.37241352 0.12022321 0.62787193 0.57479775 0.12726614 0.64197046 0.09397806 0.0025430582 0.0575383 0.0044356566 -0.05824946 0.38642797 0.45251572 0.18709832 0.20097566 0.5008827 0.6120442 0.5649601 0.288315 0.3858323 0.48921221 0.6243422 0.6065867 0.50643 0.542331 0.48393643 0.32479578 0.44877243 0.5253373 0.5196988 0.60684586 0.6568354 0.3381049 0.447698 0.6360289 0.2733741 0.31848294 0.37277505 0.2360339 0.1052073 0.1157436 0.8191489 0.766533 0.0655974 0.77557945 0.69640225 0.6391994 -0.00624849 0.6128573 0.622206 -0.0014620014 0.5821028 0.31166393 -0.03593751 0.19019021 0.0076383874 -0.0147084445 -0.01027149 0.59524655 0.4514051 0.42045233 0.5290346 0.54493606 0.54547834 0.51303643 0.3996868 0.47089624 0.48254606 0.16254365 0.09897988 0.06783659 0.836729 0.8193228 0.4857103 0.015247308 0.8465558 0.028671708 0.8086034 -0.04111013 0.724877 -0.116333544 0.57473755 0.32770482 -0.035249256 0.18796508 0.032489073 0.28504592 0.27017057 0.007387452 0.117577955 0.41146606 0.50373435 0.51263815 0.5209641 0.48795804 0.4126525 0.527673 0.53562355 0.54197073 0.40288043 0.36090016 0.23403409 0.26634187 0.17740394 0.1494956 0.27319074 0.06604345 0.15716799 0.6797541 0.76139 0.74592555 0.6650163 0.500964 0.36952856 0.6771623 0.7739911 0.7891226 0.5824698 0.80893636 0.77080846 0.6909087 0.4039262 0.1334734 0.22527476 0.33012712 0.3040557 0.3618267 0.3146332 0.3941894 0.4270548 -0.026056739 0.123470366 0.3666703 0.44931668 0.3998093 0.48679578 0.15733778 0.6092491 0.65766084 0.08660169 0.12284837 0.31099212 0.65207237 0.7108139 0.73771 0.7521281 0.782918 0.50260484 0.38610357 0.80122 0.80582964 0.6883321 0.55529046 0.41866803 0.27345327 -0.0026944578 0.35617572 0.5763793 0.7298974 0.77924734 0.7903702 0.6748673 0.56357384 0.06974421 0.43709385 0.67607385 0.74141514 0.5910387 0.51707685 0.5258801 0.48205295 0.34966838 0.4664652 0.39225316 0.42390373 0.40663713 0.44000554 0.44944665 0.39704198 0.367831 0.029668402 -0.062524654 -0.04723618 0.0017392635 0.1507643 0.32244202 0.45213404 0.57201374 0.6289543 0.0021494478 0.6579769 0.70118064 -0.003505677 0.76801443 0.7881098 0.7960118 -0.18961221 0.7740208 0.39920893 0.25168416 0.7172425 0.7431575 0.54122645 0.3715975 0.64730054 0.5783965 0.5512182 0.27957475 0.5439603 0.5131185 0.26766962 0.48811072 0.44611442 0.4248925 0.41067 0.35650426 0.016305929 0.006170295 0.008707717 0.16572094 0.27799705 0.32959005 0.28253976 0.32429934 0.38033175 0.49406528 0.5703387 0.04843036 0.069666155 0.5910657 0.6645561 0.703249 0.7608011 0.74765974 0.023927823 0.7277399 0.44908202 0.13190186 0.68519706 0.70777154 0.5476659 0.515758 0.6164047 0.6045933 0.55362684 0.5916983 0.5764744 -0.0012161136 0.5480658 0.45411527 0.39694312 0.34176385 0.14506005 0.36961436 0.33939257 0.2733987 -0.01839819 -0.017262727 0.0031047463 0.051209748 0.07760048 0.052064553 0.31037763 0.31548274 0.31988096 0.34628105 0.41502792 0.12857479 0.13397008 0.14298145 0.2710179 0.3306417 0.3626767 0.41259897 0.51898557 0.1546972 0.13763423 0.5386255 0.6061752 0.12448868 0.09702721 0.61523056 0.690954 0.102830015 0.12167714 0.61033493 0.67681795 0.440917 0.35364893 0.6484606 0.64408696 0.5573773 0.5340893 0.6193531 0.6044146 0.57082033 0.61384 0.5903902 0.14235657 0.37891853 0.56460613 0.47852242 0.17080185 0.43420392 0.35347927 0.2967021 0.21724561 -0.0127501935 0.36490697 0.017402045 0.04748793 0.019108042 0.5161584 0.60332584 0.21148221 0.2731634 0.32496947 0.33930117 0.33078182 0.34094626 0.3710854 0.31756037 0.37015086 0.4513904 0.10203339 0.3410855 0.4529976 0.5478283 0.10241751 0.113240704 0.4470939 0.5148579 0.08956979 0.54019976 0.5229374 0.40516675 0.47150964 0.53206855 0.68168926 0.37833583 0.281247 0.66617 0.29987237 0.23507304 0.15645535 0.509611 0.6067951 0.070993155 0.05502154 0.38585663 0.05965656 0.03905925 0.029925492 -0.041784793 0.3254129 0.3138858 0.2845466 0.4503878 0.423762 0.4085012 0.35599115 0.39466524 0.46951196 0.4487201 0.5837593 0.61070514 0.53500015 0.50366753 0.6703578 0.7321818 0.70027894 0.6068258 0.6878487 0.71570075 0.7170666 0.13898621 0.27613994 0.2626394 0.16250066 0.13150287 0.16611831 0.17303923 0.22239809 0.3132496 0.31461072 0.20106225 0.22590347 0.20899644 0.28216466 0.09765216 0.12371942 0.17077309 0.17139655 0.29651356 0.082259946 0.055268668 0.11147552 0.13863653 0.19048274 0.09520857 0.21884409 0.54638636 0.31622517 0.18708256 0.7000849 0.7147108 0.16198637 0.7091089 0.18812779 0.108555675 0.6483638 0.69914615 0.16403961 0.09850912 0.5655763 0.07318387 -0.003728807 -0.10807118 0.32903448 -0.0313721 0.28410053 0.29375473 0.40529677 0.43296823 0.46583647 0.5498085 0.58111364 0.5269389 0.6243659 0.6630305 0.7216104 0.70056045 0.6306162 0.67585266 0.70696765 0.7015624 0.2479774 0.17580202 0.16892809 0.093922704 0.0990748 0.07380544 0.060263686 -0.008648276 0.048331104 0.039736524 0.1900655 0.020780474 0.19334441 0.29886174 0.31825384 -0.0690832 0.394245 0.54948056 0.006308377 0.6606187 0.698128 0.04174672 0.671322 0.7094979 0.15814047 0.6636483 0.6907935 0.18235932 0.16301446 0.5785986 0.115270466 0.27803352 0.19474842 0.29673222 0.3327499 0.38703537 0.41561845 0.49086457 0.46822774 0.59972274 0.63660747 0.55422366 0.6422185 0.68560123 0.662547 0.6160219 0.4728368 0.34042823 0.2842576 0.29322058 0.22898489 0.10884356 0.061169997 0.018331975 0.0072113723 -0.030491512 -0.0021869913 0.049139835 0.10754388 0.1993334 0.2602958 -0.05998379 0.16868886 0.3068386 0.394855 -0.19097736 0.32615322 0.43609527 0.57839274 0.46724513 0.6288502 0.17730916 0.43225944 0.5745594 0.18069606 0.16348241 0.43386236 -0.17432179 0.26132312 0.19379576 0.22688717 0.2703311 0.268544 0.40331572 0.45764387 0.44513518 0.53065467 0.53043246 0.5510632 0.563142 0.60578024 0.5645938 0.5747534 0.51609635 0.43273664 0.38229716 0.5990619 0.53997064 0.31956035 0.53864294 0.26640552 0.22955729 0.12959951 0.08747378 0.03678199 -0.027818847 -0.023394734 -0.025050014 -0.075116724 0.09795651 0.17148085 0.2550485 -0.04665479 -0.11806169 0.13571133 0.19844249 0.2942313 0.12690175 0.3267266 0.42170554 0.13727082 0.12668759 0.10613522 0.24609262 0.13985604 0.22416621 -0.2396169 0.06550258 -0.23655707 0.17866251 0.1741109 0.09232841 0.38986143 0.3800196 0.29266208 0.49145025 0.4894973 0.4692489 0.509871 0.50078773 0.48738843 0.50484383 0.55782014 0.64728415 0.6021614 0.5345435 0.45149463 0.36914325 0.34965628 0.6900018 0.32041478 0.2906744 0.5403383 0.2555978 0.34411097 0.32195762 0.18334848 0.10657618 0.111000665 0.05931873 -0.012386534 -0.043548428 0.020220412 0.57932425 -0.09291507 0.0399386 0.5620541 0.34508002 0.106646165 0.6548912 0.57827365 0.37038955 0.09685244 -0.2685465 0.10637901 0.119911455 0.5366242 -0.115456045 0.09843728 0.05280213 0.079240665 -0.16983442 -0.026478982 0.36228162 0.3564642 -0.027150795 0.30650896 0.33790275 0.3452325 0.20191321 0.11385627 0.20650053 0.29668915 0.28802997 0.12936574 0.30496442 0.2590616 0.25861213 0.75203526 0.7354095 0.7063291 0.21187317 0.10573326 0.13308233 0.7565868 0.74811155 0.7186345 0.6762054 0.11172025 0.036298245 0.08515006 0.17520836 0.75103444 0.7350178 0.7071501 0.30066505 0.35150987 0.41870016 0.41216815 0.40874457 0.44256097 0.42377737 0.399343 0.38312352 0.43952328 0.4650104 0.45668015 0.43781036 0.3264824 0.5861672 0.6539291 0.7013628 0.4306247 0.47169566 0.50537443 0.45554972 0.3428571 0.32484177 0.3114349 0.2798797 0.5740937 0.6650102 0.7117421 0.4507022 0.48541602 0.49268764 0.46189576 0.34438568 0.25839293 0.665328 0.7082715 0.42880282 0.45580178 0.45640677 0.4324357 0.59715545 0.55247205 0.47490045 0.6629735 0.6162324 0.472431 0.39747125 0.34806386 0.68135643 0.30925745 0.2825186 0.58517724 0.44891882 0.34089747 0.2025387 0.48372144 0.33906263 0.13349247 0.59368026 0.5830826 0.18155892 0.66966486 0.6566832 0.1831465 0.6984364 0.66269433 0.67755204 0.64236164 0.57949996 0.3013702 0.12900124 -0.061229583 -0.29400274 -0.33459222 0.42678154 0.52330494 0.4370747 0.65230095 0.61827016 0.5043661 0.2294963 0.23529741 0.45166183 0.41617662 0.40471524 0.40254393 0.038439225 0.09636167 -0.075338185 -0.037767828 0.38164443 0.37500894 0.11965123 0.12162821 0.332216 0.24153927 0.17939499 0.27399307 0.295205 0.28097326 0.29906347 0.2321402 0.23771559 0.69405043 0.6659316 0.5994017 0.6003767 0.34834102 0.3163383 0.16430269 0.7265663 0.7368264 0.7186462 0.6885484 0.6504111 0.54307127 0.32026345 0.30845344 0.22533749 0.21027431 0.06373082 0.1307455 0.7323879 0.7490202 0.67439556 0.64463735 0.52637565 0.1396718 -0.03645822 -0.17892545 0.07702012 0.09876919 0.72424674 0.7426137 0.69789004 0.59735656 0.52380496 0.25577042 0.20564967 0.6887435 0.32335332 0.3334121 0.2775076 0.17375204 0.55366796 0.2671117 0.27285314 0.28875208 0.3243761 0.38479835 0.35312998 0.61399114 0.6551577 0.28195512 0.3089552 0.36068422 0.32027826 0.24149443 0.19364025 0.5036254 0.6676682 0.7098566 0.7091587 0.32770467 0.34986854 0.25192085 0.19550774 0.3546782 0.47106847 0.72061294 0.7156229 0.36433947 0.4089715 0.16747712 0.24104646 0.21438687 0.22442676 0.4952004 0.6639868 0.70287824 0.6885324 0.31889623 0.37482667 0.3907789 0.39808226 0.2948724 0.17847648 0.1456664 0.15972988 0.6360838 0.28691176 0.35613692 0.2969134 0.14649083 0.59291804 0.56403726 0.48214394 0.59976244 0.5892735 0.383157 0.35294947 0.5870497 0.29350594 0.5385979 0.23309167 0.27374968 0.4414144 0.06296022 0.114025325 0.31478024 0.17249279 0.19897483 0.56482834 0.5192191 0.20450333 0.75613594 0.72902954 0.6652506 0.65013766 0.2089638 0.7313941 0.65843785 0.70673954 0.29095083 0.48276466 0.6224061 0.6551988 0.5777872 0.6641531 -0.33008316 0.28879103 0.41416252 0.6061831 0.62098217 0.6150705 0.5626322 -0.06529434 -0.2549899 -0.29097798 0.18413725 0.24825741 0.3851459 0.5495909 0.6022804 0.62190366 0.26231968 0.18020317 -0.045271307 0.048707202 -0.3807435 0.3984526 0.5894561 0.5993275 0.25275666 0.2058749 0.14898618 0.10401328 0.19565454 0.19524507 0.46132904 0.35547096 0.28287286 0.31892258 0.23985323 0.65453076 0.6275774 0.55228746 0.5094108 0.5440079 0.36225805 0.3630088 0.1445999 0.17070377 0.6971959 0.5045336 0.42506465 0.31452617 0.29454437 0.20777625 0.20790526 0.10483843 0.12611778 0.6734203 0.43509576 0.4022444 0.24002759 0.21828544 0.122757085 0.096951336 0.1019874 0.6321871 0.39112276 0.38714075 0.178557 0.47917527 0.18143168 0.16862153 0.14582081 0.19130391 0.16626924 0.09521445 0.30200922 0.57874966 0.5493594 0.24019931 0.38044977 0.6204843 0.6502639 0.25768137 0.6770227 0.27052003 0.67300844 0.29398793 0.3074527 0.1314254 0.6418958 0.25058684 0.15641537 0.573681 0.22534662 0.15558666 0.1880001 0.14676665 0.14563349 0.14494283 0.13799709 0.29294336 0.5811103 0.69042194 0.32640922 0.12765667 0.13912065 0.12452809 0.31417814 0.4959163 0.67760086 0.7559054 0.7730365 0.22527225 0.30470106 0.472903 0.6839422 0.7692773 0.2990507 0.558573 0.55271024 0.4891856 0.4037632 0.52175033 0.3597