# vtk DataFile Version 2.0
Really cool data
ASCII
DATASET POLYDATA
POINTS 7830 float
28.224564 56.875446 2.8131132
28.047955 56.80607 3.6889648
28.11615 56.885063 4.3438277
28.36197 57.1688 5.222468
28.344055 57.781643 2.229479
28.081234 57.43637 2.7571368
27.869682 57.497864 3.5673401
27.92649 57.58844 4.281274
28.199238 57.428856 5.015983
28.173761 58.14528 2.7464192
27.97337 58.117905 3.4727094
28.000734 58.095486 4.414354
28.310293 58.22827 5.1886516
28.348494 58.893505 4.4292707
29.069641 55.937054 2.8395896
28.645521 56.073128 3.5477867
28.926722 56.00656 4.344105
29.08182 56.209164 5.0228896
28.8199 56.797836 2.095558
28.5015 56.641293 2.5826132
28.379604 56.406944 3.2463973
28.466131 56.347076 4.4803276
28.580435 56.775307 4.9723673
29.323019 56.883026 6.361097
28.708767 57.598 1.9161803
28.515623 57.517597 5.5939174
29.025085 57.48556 6.2981606
29.192383 57.69886 6.911059
28.836153 58.10601 1.8945895
28.419664 58.433083 2.4212854
28.802645 58.36019 6.389334
29.117886 58.39864 7.030277
28.756 59.1714 2.7512224
28.550177 59.278294 3.5208936
28.652634 59.563915 4.3286395
28.955685 59.583282 5.4028163
29.064753 59.064995 6.4725795
29.115015 60.21206 3.6552825
29.207909 60.15099 4.437422
29.616333 55.40682 2.9573314
29.510029 55.379856 3.4376907
29.644928 55.405945 4.010401
29.70745 55.992252 2.1320984
29.508245 55.686886 2.6753466
29.440676 55.50021 3.4602337
29.594992 55.54478 4.170401
30.055613 55.582005 5.133622
30.300964 55.562874 6.756519
30.248419 55.935246 7.515244
30.421444 55.86719 7.8683763
30.19177 55.99551 13.202643
30.117458 55.935513 13.538933
29.893192 56.13103 14.205065
29.471111 56.42602 1.9826131
29.389086 56.601658 6.0137744
30.198593 56.29132 7.5412574
30.26791 56.83069 7.8771267
30.12448 56.68867 13.088723
29.767838 56.70941 13.735289
29.807148 56.614 14.482067
30.119282 56.5804 15.122431
29.64124 57.495728 1.480505
29.388205 57.550236 1.5777831
30.117033 57.124245 13.173156
29.789705 57.308968 13.752472
29.76782 57.302773 14.409994
30.119728 57.499977 15.378824
30.360168 57.743805 15.918602
29.289867 58.551197 1.8473434
29.50592 58.43438 7.3963695
30.07299 58.152775 7.8396845
30.04574 57.80689 13.776822
30.098099 58.04621 14.375764
30.202795 58.161407 15.216905
30.38093 58.025 15.934856
29.803928 59.292145 1.7630494
29.891151 59.1559 7.3618126
30.016354 60.46172 2.0017421
29.572016 60.33533 2.9160345
29.438816 60.16746 4.792705
30.270834 59.833557 7.6172504
30.127115 61.160576 2.5814536
30.13833 61.06129 3.1630921
30.399775 61.419495 6.4614105
30.150826 62.749306 6.0349994
30.228853 62.4051 7.0526786
30.467869 62.74279 8.123533
30.324602 63.27717 5.851254
30.23498 63.668087 6.3534718
30.284601 63.65725 8.337295
30.327623 64.01725 5.9858937
30.338823 64.12068 6.5685406
30.405777 64.31536 7.680431
30.386608 64.16759 8.436478
31.485357 47.614525 5.807645
31.455465 50.735973 8.639542
31.322918 50.709984 9.502366
31.44571 50.816765 9.978642
31.43227 51.478336 9.474924
31.394148 51.104603 10.059089
31.435312 51.86888 13.568194
31.33739 52.199406 14.041971
31.128067 52.65673 13.362916
31.21018 52.70668 14.313898
31.366474 53.059574 15.069184
31.388807 54.127865 5.4694223
31.0913 53.881447 6.4829636
31.12116 53.921577 7.349777
31.012106 53.714798 12.6347065
30.77283 53.85431 13.708871
31.018572 53.39641 14.566782
31.214266 53.442307 15.02855
30.521585 55.30315 2.7719386
30.534824 55.076916 3.4875193
30.75369 54.7888 5.4724383
30.764654 54.695385 6.6145105
30.69905 54.891357 7.3148885
31.185165 54.71164 8.037649
31.160414 54.583138 12.019869
30.87183 54.491505 12.553863
30.76603 54.8271 13.560004
31.265043 54.470066 14.917944
30.477356 55.32441 7.5746584
30.80336 55.545155 8.283943
31.134066 55.65318 8.71598
31.048534 55.456932 12.269955
30.67095 55.473316 12.851051
30.541018 55.31332 13.946052
30.714083 55.65587 15.076388
30.321732 56.463856 1.7103691
30.768444 56.41521 8.364808
30.617758 56.3393 12.657361
30.43383 56.55685 15.433089
30.73872 56.756897 15.936905
30.350176 57.463837 1.4522514
30.95907 57.008312 8.53982
30.636784 57.46198 12.972269
30.80669 57.61315 16.34977
31.129406 58.955322 -0.4318582
30.589733 58.962532 0.6566622
30.41659 58.685577 8.0485525
30.485485 58.013023 13.470831
30.453083 58.603886 15.598882
30.733503 58.394623 16.219505
31.150795 58.363964 16.639894
31.318914 59.879517 -0.9206382
31.018938 59.485344 -0.33230785
30.940706 59.037937 14.811018
30.770735 58.952282 15.462671
30.950811 58.96141 16.145504
31.152624 60.39682 -0.20696564
30.587425 60.163555 0.9488082
30.780378 60.622982 1.4285616
30.58677 60.86572 7.3865914
30.73571 60.262596 8.060367
31.337204 60.79469 -0.09512471
31.075554 61.007576 0.8217921
30.767918 61.17836 1.7681637
30.452106 61.44356 2.6796682
30.37452 60.959415 4.608803
30.507011 61.267075 6.5383573
30.645056 61.3683 7.702511
30.81434 61.75622 8.295356
31.179993 61.7114 2.0229604
30.80059 61.7446 2.6169086
30.531788 62.403797 8.373976
31.048323 62.716362 9.35304
30.883062 63.817352 5.0186653
30.600313 63.6298 9.106289
30.941652 64.05416 5.2107863
30.73687 64.34117 5.645064
30.561827 64.462296 6.440466
30.57699 64.569214 7.565343
30.566437 64.46393 8.569502
30.815989 64.319565 9.056432
30.905912 64.6541 5.818789
30.892935 64.75164 6.376358
30.86367 64.8323 7.7617903
30.899038 64.8258 8.46636
30.937235 64.78001 8.8176155
32.195114 46.157032 4.926979
32.16345 46.03244 5.531362
32.181915 46.06482 6.1319914
32.342026 46.282196 6.841345
32.221004 46.984303 3.9303868
31.917713 46.789948 4.769335
31.769691 46.668278 5.544147
31.800867 46.768803 6.2548375
32.17688 46.676147 7.0109396
32.249607 47.520393 3.6775331
31.798195 47.52325 4.7317085
31.566875 47.37453 5.5248575
31.551003 47.548016 6.1851454
32.08358 47.58767 7.2577863
32.28591 48.158333 3.8426855
31.902378 48.220963 4.7991676
31.673046 48.212605 5.365566
32.042892 48.706608 7.38862
32.048016 49.115913 8.674817
32.375786 48.76485 8.874629
32.271866 48.920116 5.0678635
32.011536 49.157578 5.966674
32.019333 48.97222 6.48002
32.02646 49.653812 7.496416
31.566765 50.04638 8.920072
31.736 49.763092 9.515244
31.852884 49.81553 10.252443
32.141617 49.73482 10.886103
32.339138 49.861366 6.4733458
31.961031 50.764576 7.6841493
31.582573 50.54695 8.484413
31.481718 50.338562 9.705771
31.633913 50.361885 10.296304
31.856384 50.371 11.048803
32.057724 50.75441 12.84116
32.03402 50.86158 13.550497
32.174606 51.017086 14.040213
31.518469 51.53599 8.677357
31.65532 51.585182 10.544276
31.94769 51.1119 11.067622
31.556816 51.73707 12.6543255
31.603912 51.53138 13.496908
31.762339 51.89212 14.410376
31.964876 52.099316 15.003671
31.916424 52.985558 5.651753
31.799492 52.914803 6.5712366
32.080338 52.30721 8.114522
31.649971 52.01666 8.853149
31.569178 51.87923 9.455339
31.810356 52.526413 10.6401415
32.06492 52.85463 11.235215
31.619953 52.226818 12.496064
31.433958 52.47282 14.743359
31.687622 52.716618 15.255957
31.92918 53.095074 15.729002
31.869698 53.608273 5.0728216
31.47448 53.48021 5.710498
31.58955 53.672676 8.081577
32.071857 53.52503 9.150364
31.527609 53.129528 12.132116
31.806227 53.573273 15.728082
30.990492 55.159565 3.485778
31.78988 54.365856 8.612986
31.967289 54.615517 11.198694
31.596483 54.877445 11.580987
31.913658 54.28395 15.742107
31.485056 55.87878 16.030758
31.915205 57.20267 1.4146762
31.527426 56.530975 8.888981
31.721367 55.82377 11.965846
31.720083 56.548637 16.519104
31.473999 57.028587 16.672594
31.36743 58.112366 -0.16127375
31.619808 57.700153 0.42248344
31.735645 57.740242 9.157034
31.94195 56.843678 12.421799
31.442078 57.21243 12.638677
31.701502 57.437256 16.854128
31.866821 58.759335 -1.0910269
31.408533 58.45761 -0.497593
31.185917 58.00672 13.139896
31.368547 58.191135 13.4371
31.472404 58.39183 16.771534
31.780983 59.5719 -1.2016107
31.780052 59.328552 9.185629
31.472618 59.088436 16.39455
31.430399 58.78238 16.610626
31.753391 60.36708 -1.0680728
31.40599 60.395473 -0.7151855
32.036144 60.350456 9.435134
32.31983 60.565983 10.2103815
32.411167 60.630985 11.327242
32.27569 60.799767 12.545173
32.47071 60.59692 13.23489
32.01794 60.96479 -0.9287323
31.803312 61.143524 -0.36437643
31.73583 61.372654 0.5564649
31.590698 61.38816 1.1724818
32.193726 61.408928 12.124313
32.041897 61.533756 13.938395
32.08063 61.67841 14.863982
32.209534 61.522568 15.403653
32.38314 61.501736 15.70253
31.359732 61.692974 1.8835367
31.496626 62.065773 2.6955626
31.348063 62.0315 3.8288507
31.671291 62.70391 9.792653
32.240627 62.396027 12.460493
32.3061 62.412006 13.69014
32.224766 62.324493 14.7717
32.280205 62.12126 15.2495985
31.491907 63.23192 4.590005
31.464706 63.763344 9.695995
32.391006 62.703293 14.17788
31.597897 64.14519 4.958299
31.617434 64.540985 9.319284
31.326698 64.01248 9.641529
31.593859 64.83565 5.795615
31.449148 64.995804 6.4510894
31.500408 65.08548 7.497212
31.451967 65.05413 8.396329
31.645126 64.899376 8.845127
33.045155 45.454044 5.6437125
33.09993 45.454323 5.974466
32.895485 46.312332 3.8743322
32.698517 45.925766 4.709186
32.61317 45.704353 5.534564
32.644806 45.751537 6.2705536
32.879387 46.073196 7.244878
33.00299 46.950577 2.893684
32.704388 46.722923 3.4652832
32.53275 46.731598 7.5126057
32.87272 46.747906 8.128635
32.768986 47.57127 2.8502064
32.424015 47.213963 7.7920628
33.21436 47.530785 9.031636
32.984344 48.30236 2.891821
32.57599 48.287354 3.4983623
32.637054 48.65521 9.37191
33.310947 49.226635 13.074304
33.06661 49.141792 3.7289948
33.235703 49.47978 12.776365
33.036945 49.750084 13.485165
33.21322 49.81934 14.086243
32.542023 50.35841 13.563493
32.54605 50.636475 14.174818
33.0 50.82125 14.832633
32.855663 51.856106 6.670522
32.666363 51.585205 15.0690775
32.67374 52.73998 5.5621085
32.51927 52.91824 15.902687
33.4146 53.657337 -4.0900474
33.410973 53.576855 -3.6402411
32.50472 53.30511 9.594382
32.529316 53.321877 15.931503
33.395206 54.167038 -4.042875
33.400658 54.233826 -3.7504485
32.71715 54.557953 9.342433
32.619865 54.23371 15.913297
32.422752 55.72993 9.493496
32.624054 54.882545 10.69478
32.395363 55.617855 16.418634
[...]
POINT_DATA 7830
SCALARS features_00 float 1
LOOKUP_TABLE default
0.70021695 0.6675238 0.58867145 0.45272166 0.6511775 0.70548105 0.7024919 0.62576354 0.49757895 0.6615599 0.683632 0.60523933 0.48916298 0.54590046 0.59893626 0.59300137 0.4966966 0.40266278 0.64773154 0.67592883 0.6530956 0.5280304 0.46386597 0.2417488 0.6184397 0.40123767 0.29149953 0.25508088 0.56686395 0.5975747 0.34949195 0.27595383 0.49233907 0.5146479 0.4524697 0.38921994 0.3205263 0.36533093 0.35776266 0.53224516 0.5040348 0.43410677 0.57935196 0.56665134 0.51374054 0.4287973 0.24471146 0.20262292 0.22231671 0.22577754 0.52415574 0.5403114 0.607642 0.60184664 0.2593915 0.22165644 0.22353493 0.59636885 0.65555304 0.67328924 0.6364717 0.49435478 0.5345597 0.6381085 0.70926225 0.7251743 0.66042084 0.6292387 0.46773916 0.22715539 0.20083703 0.7323296 0.7300886 0.6486114 0.62708986 0.3149884 0.16525742 0.2635568 0.32921857 0.32111698 0.08093096 0.2484212 0.25914657 0.15985152 0.48599577 0.34748438 0.45414972 0.57420665 0.5849953 0.64724123 0.6143173 0.60677016 0.642567 0.66823804 0.58377373 0.28926444 0.30183157 0.2956816 0.2688253 0.28519237 0.3384784 0.36328283 0.33730534 0.38079828 0.41138273 0.20870852 0.23855126 0.23764864 0.28159976 0.36563486 0.4012834 0.41453597 0.48029596 0.4028291 0.13743658 0.21902815 0.23246597 0.21385527 0.244971 0.30114573 0.38240942 0.40556905 0.22628592 0.2170696 0.19037472 0.34581932 0.41329598 0.4601398 0.47702342 0.47866032 0.2190809 0.4947381 0.59354407 0.57323015 0.3720292 0.21122612 0.5904946 0.6034785 0.45607907 0.31930882 0.15691094 0.68139577 0.6034144 0.5971873 0.56137925 0.56337416 0.494724 0.55735886 0.55209345 0.53252536 0.5073823 0.32768154 0.28852385 0.08884197 0.034706358 0.49822554 0.3684296 0.26615047 0.23089817 0.23574865 0.13617977 0.13906209 0.20947343 0.26040146 0.22153145 0.3792889 0.5619574 0.6068469 0.6661062 0.62575686 0.63511825 0.62559915 0.64337194 0.6709602 0.6646601 0.6397235 0.6371435 0.6482648 0.6625125 0.6604097 0.6316569 0.5986067 0.5734744 0.5360068 0.7176186 0.66526186 0.63782287 0.60257673 0.53205085 0.7227173 0.63613325 0.6179075 0.57224 0.4579832 0.6389375 0.5609157 0.5337442 0.32758987 0.2779451 0.26019263 0.45195043 0.40218806 0.3845361 0.21866207 0.30509892 0.29455298 0.26935735 0.22045103 0.18573654 0.16451806 0.28273317 0.30270317 0.29021087 0.23764814 0.22010535 0.295489 0.3233436 0.2615059 0.22984424 0.224863 0.24198402 0.32111958 0.35686383 0.38060176 0.17733863 0.2031548 0.16417056 0.21942985 0.22791433 0.07276459 0.049929895 0.22786388 0.38945076 0.4074771 0.38831744 0.1634236 0.21904938 0.10683474 -0.037329555 0.18156499 0.3746395 0.36705104 0.09496797 0.0644736 0.1758168 0.31701908 0.36547163 0.1711116 0.15790763 0.26555687 0.43596378 0.52703446 0.32282737 0.21799122 0.13543777 0.33348116 0.4473954 0.5268482 0.48072714 0.40096718 0.53384084 0.52891994 0.5296711 0.568398 0.030453641 0.45900983 0.5021249 0.59096605 0.5615161 -0.04852595 -0.18956302 0.020061284 0.25718355 0.3099791 0.56869996 0.5273998 0.4424957 0.36850688 0.33983847 0.5106789 0.51848006 0.49202454 0.4831583 0.2810554 0.22956653 0.1922133 0.50849205 0.44650072 0.48624277 0.55266535 0.55004257 0.48168036 0.6412955 0.505832 0.59776753 0.61986035 0.646657 0.6421163 0.6502423 0.64085776 0.63235456 0.6118235 0.4980458 0.4840636 0.64152366 0.5959799 0.5512705 0.5225636 0.47976857 0.7050468 0.71344304 0.4691295 0.39864075 0.76020896 0.4051429 0.27065688 0.6702277 0.645856 0.22818829 0.27323797 0.43979678 0.2536516 0.29228973 0.31514448 0.28955382 0.3176143 0.32187676 0.0015780181 0.35360754 0.05828494 0.34393486 0.74374825 0.7121155 -0.05393215 0.2995285 0.7249409 0.6978836 -0.1397914 0.20694977 -0.09630326 -0.29641187 0.20671856 0.25231475 0.15030536 -0.5207217 0.3612389 0.3359078 -0.0067295507 0.15373869 0.40626436 0.4005537 0.3802067 0.55045867 0.055394758 0.35609716 0.3806352 0.59518737 0.5866951 0.3418578 0.27175638 0.24070723 0.55336016 0.5165959 0.49267763 0.48626444 0.44585222 0.37935674 0.3428298 0.5048939 0.56273323 0.5739982 0.3756232 0.51656175 0.3511572 0.33974016 0.36794287 0.49687463 0.56542075 0.592594 0.57919526 0.53827727 0.56044585 0.45500135 0.5949364 0.5987784 0.56586635 0.5153519 0.5446299 0.44306958 0.42712098 0.50762093 0.52333105 0.5012301 0.48379374 0.46789283 0.437936 0.39856035 0.61702144 0.36931098 0.28724906 0.77015543 0.84466887 0.6286738 0.5613561 0.16101201 0.64208794 0.6718818 0.7942609 0.8539473 0.62762135 0.17635682 0.27463558 0.31389388 0.6243019 0.47032732 0.3480854 0.16494446 0.2708797 0.3247633 0.3220786 -0.07029237 0.27322197 0.67274487 0.5963589 -0.179057 -0.12490223 0.23357213 0.74976563 0.75322044 0.70760834 0.57962257 0.25489864 0.27529395 -0.07419312 0.22526368 0.7620294 0.7614106 0.6027057 0.33330333 0.30956003 0.36077327 0.33329165 0.18916346 0.7381251 0.7327389 0.664515 0.52797365 0.20892665 0.23846582 0.3727483 0.113236345 0.7063596 0.623629 0.13409534 0.20061299 0.15345044 0.092788994 -0.572518 0.24362282 0.2840468 -0.65633196 0.26119366 0.45576262 -0.3510399 0.27695617 0.52107555 0.5288297 0.52710104 0.4849899 0.4715463 0.38999566 0.4665454 0.45888752 0.45860732 0.39433724 0.32116205 0.20882238 0.5721847 0.29729992 0.33437258 0.46434546 0.5387707 0.5957401 0.47255543 0.5143216 0.20474693 0.14006649 0.35286713 0.41415203 0.5227512 0.46574378 0.41434672 0.35880062 0.27957842 0.38150412 0.37829232 0.37765375 0.82215047 0.412811 0.40025222 0.3850072 0.38238382 0.35531348 0.5880427 0.6711537 0.79918957 0.84318846 0.87210405 0.42901382 0.38145417 0.2946916 0.4874339 0.5877584 0.6740936 0.7619599 0.87177634 0.90078336 0.9057864 0.52326113 0.0836389 0.1451336 0.20118046 0.22157902 0.5676187 0.61722356 0.7185829 0.88525057 0.90801257 0.42053798 -0.022998093 0.118390694 0.24504092 0.28025657 0.3137045 0.47333977 0.5048578 0.5643083 0.7422777 0.870118 0.056115996 0.2998505 0.44940692 0.46662307 0.6116264 -0.103752114 0.3079158 0.33286107 0.34721333 0.1759699 0.6359295 0.6076418 0.5143276 -0.2501117 -0.2056186 0.241361 0.3419857 0.38726944 0.45441937 0.4769544 0.70752174 0.6944656 0.11552967 0.18143989 0.19931738 0.14701249 -0.06841408 -0.0224946 0.3831575 0.51831436 0.51888776 0.43034953 0.69923925 -0.022630801 0.3469821 0.5628854 0.5260674 0.44062877 0.6850604 0.06624895 0.4911496 0.4475724 0.6367174 0.6456045 0.07513871 0.0763652 0.061190695 0.29720664 -0.025761038 0.36908117 0.45945746 0.44357845 0.18921767 -0.050842613 0.43455777 0.35756224 0.29176122 0.3867504 0.22785375 0.10931386 0.21794645 -0.10205041 0.55147696 0.30575734 0.42624772 0.5373957 0.21252662 0.115032725 0.026507657 0.027982201 0.105225176 0.21444258 0.2834212 0.2753893 0.10426086 0.35538733 0.36393753 0.35954222 0.7765412 0.8083807 0.81192166 0.31720266 0.34330374 0.31578296 0.5333784 0.66595006 0.75682414 0.83560884 0.8531937 0.87218165 0.44800657 0.34805325 0.1835204 0.19940718 0.16707875 0.12667623 0.390854 0.50232923 0.89221084 0.89041615 0.4991353 0.4764946 0.30092183 0.08402167 0.09531184 0.10405088 0.120738745 0.3665436 0.89839864 0.4852943 0.42592642 0.3104331 0.28813112 0.38464755 0.8606628 0.88648367 0.25965056 0.1685491 0.027095214 0.10322056 0.09408508 0.32731342 0.30004638 -0.15590277 -0.019340202 0.18674046 0.17866191 0.14758307 0.23444803 0.24895197 0.23937725 0.26846927 0.004389189 0.540213 0.5722004 0.36079502 0.18570295 -0.057337016 0.015628934 -0.3347507 0.02347511 -0.097790316 -0.0026778877 0.16551168 0.13867563 0.19908005 0.18578824 0.55750036 0.0725006 0.0022826865 -0.21330024 0.08974291 0.08135974 0.23698121 0.29606664 0.5385089 0.58213085 -0.17017335 0.020369994 0.015501432 0.035029072 0.26482016 0.37531292 0.2514389 0.53879094 0.5940037 -0.27469233 -0.08320571 -0.063819766 0.27981478 0.27949533 0.50430137 0.52352697 -0.21274437 -0.0064077005 0.06942667 0.4497136 0.34679914 -0.066144586 0.100399844 0.31296495 0.037506826 0.001065582 -0.04187943 0.26957077 0.40405187 0.460543 0.4964676 0.05970976 0.08981704 -0.06892064 0.3999678 0.5559032 0.67449975 0.61637545 0.5604392 -0.075942494 -0.08802141 0.5566275 0.6330954 0.68067265 0.6547599 0.6071617 0.13012756 -0.104138106 0.5798505 0.63814926 0.6471567 0.62028825 0.2884556 -0.038382318 -0.25815913 0.5659976 0.5979521 -0.34209746 0.13191305 0.09241104 0.13434778 0.08647422 0.011854537 0.01253953 0.0136681795 0.18877317 0.14573231 0.10679317 0.31902137 0.33327436 0.32929838 0.71631074 0.7636844 0.8093029 0.5205766 0.44516724 0.38154408 0.22003087 0.23558854 0.40164196 0.4530266 0.5310677 0.6647979 0.81697494 0.85021603 0.5345915 0.510967 0.45929235 0.12605871 0.13007866 0.16126877 0.19469053 0.22135368 0.21868032 0.3159122 0.3883163 0.8605611 0.5367852 0.49272934 0.15479988 0.1920513 0.21163593 0.2949447 0.8718922 0.5026256 0.050031576 0.1702031 0.7758594 0.08420836 0.119827144 0.08751721 0.02681564 0.3073992 0.658501 0.6797154 0.33567962 0.20438012 -0.17937422 -0.23871587 0.43891746 0.4144665 0.30358326 -0.17584226 -0.07799988 -0.19414993 0.087566 0.23645331 0.45102108 0.20008792 0.26392263 0.39526942 0.46437088 0.45911747 0.23011674 0.30298325 0.44244713 0.57936454 0.4523802 -0.03222829 -0.068655595 -0.075484246 0.107904606 0.18522027 0.21146645 0.30195868 0.3912451 0.48180065 0.41717798 -0.39750502 -0.07880288 -0.091777235 0.08300854 0.339364 -0.14473455 -0.049113654 -0.04327046 0.26567885 0.3627923 0.041287776 -0.14566588 -0.07554785 0.36127287 0.39622486 0.097509295 -0.12810135 0.26291704 0.3521836 0.5013598 0.025939725 -0.040454205 -0.17236228 -0.09414353 0.4212431 0.571856 -0.14914352 -0.1341365 -0.107013926 0.42725646 0.63018453 0.59851027 -0.112696916 0.0024401187 0.009206175 -0.06371598 -0.03307578 0.42468512 0.5079715 0.5530312 0.5997676 0.048141368 0.031042162 0.07834652 0.108111545 0.12104353 -0.063227884 0.061139397 0.038663533 0.2526691 0.2024301 0.07133817 -0.017527502 -0.031228837 0.20236085 0.35069627 0.35913634 0.30165333 0.286698 0.56115925 0.5241859 0.4600176 0.31796277 0.29818815 0.24140193 0.16567628 0.192482 0.20500934 0.17855383 0.18717849 0.20949313 0.29926926 0.35287794 0.46980587 0.59160984 0.6586497 0.7243641 0.56888616 0.56704855 0.17679596 0.14934771 0.07865524 0.14487869 0.19721207 0.2223572 0.22950506 0.17143184 0.27188647 0.30640012 0.7483359 0.8152493 0.5512743 0.14687517 0.2364672 0.75897276 0.5135882 -0.066860996 -0.10926173 -0.084462754 -0.15670145 0.6216575 -0.025736488 -0.0053023286 0.13797283 0.3261832 0.24407926 0.10273967 0.059498385 0.33249643 0.26927143 0.34994215 0.5269189 0.6729883 0.73471284 0.41095454 0.37607753 0.6477942 0.7225967 0.3809827 0.09748874 0.28522974 0.49293774 0.59112877 0.7001352 0.35034782 -0.007598698 -0.36173913 0.098538764 0.2509963 0.23566139 0.24356058 0.30354077 0.06307257 0.41030204 0.4112947 0.3559552 0.25733584 0.41932127 0.21964413 0.0279257 -0.045187924 -0.1711871 0.5121745 0.4207768 -0.14564072 0.09000939 0.52132756 -0.0670716 -0.08862204 0.05957975 0.16437903 0.29850164 0.4126333 0.4463266 0.5031287 0.055747196 0.08368207 0.088084206 0.32557014 0.31083944 0.119907126 0.14687818 0.23079845 0.33003175 0.35826573 0.09778922 0.11970501 0.080905356 -0.11356542 -0.097331636 -0.031306185 0.40928417 0.40539193 0.37265775 0.43392143 0.47687393 0.4484548 0.37491518 0.3769791 0.585578 0.5443292 0.4597746 0.3612327 0.35302117 0.38777256 0.36280996 0.20084766 0.16460678 0.19162041 0.1996047 0.15863495 0.12112575 0.16203631 0.16567369 0.20594132 0.12764058 0.18451913 0.25355825 0.28993 0.40379664 0.5049021 0.50784487 0.59720844 0.5936711 0.1315633 0.06074602 0.060684986 0.10968062 0.11036701 0.16297989 0.18372546 0.46993083 0.62763965 0.56753695 -0.103568405 -0.1952937 -0.19946587 -0.19075349 0.5913702 0.14632055 0.014965817 0.15813032 0.124718666 0.124055885 0.29986572 0.17274852 0.66446066 0.6238778 0.23653437 0.7433878 0.23137529 0.76731026 0.23573214 0.709238 0.23477177 -0.11302024 0.087642685 0.14100616 0.3109632 0.5352926 -0.2259172 -0.0820687 -0.02236712 0.4821362 -0.017747492 -0.069211274 0.46753234 0.39478225 0.04637368 0.46419132 0.40078634 0.29541293 -0.20413375 0.33639193 0.43067765 -0.16277893 0.5641945 0.56309056 0.0071853623 0.3212325 0.32842767 0.38007706 0.6033784 0.5990549 0.058610182 0.27162656 0.3560115 0.32407135 0.09631176 0.07521185 0.19445474 0.3344404 0.36199516 0.3657233 0.08332782 0.04328485 0.025801253 0.014748381 0.32799917 0.07243546 0.11510387 0.09175395 -0.18427841 -0.07864018 0.13452806 0.34959 0.3670455 0.42593715 0.48824048 0.47405863 0.43339843 0.47282988 0.4929055 0.49136615 0.30820698 0.2806662 0.18788843 0.27482763 0.25941378 0.16239543 0.10905905 0.14764646 0.51589715 0.45069116 0.42861265 0.44447303 0.44056568 0.37574464 0.2867955 0.18694264 0.16969366 0.10049135 0.11854162 0.037896585 0.0846272 0.12618819 0.15389894 0.10412051 -0.17230599 0.0854108 0.10759732 0.21739024 0.54117197 0.47589108 0.3938714 0.3268701 0.2691498 0.15385441 0.1732192 0.14655218 -0.015596643 -0.067529924 0.051614933 0.03553053 -0.08051202 0.43184894 0.5382475 0.24883719 0.16008973 0.20575911 0.18816027 -0.11640774 0.069993965 0.09424164 -0.06081911 0.07923499 0.4135471 0.5368652 0.04592122 0.67759573 0.06386756 0.71891415 0.7298689 -0.023067314 0.6394385 0.0548815 0.4226268 0.4383782 0.3526052 0.17845394 0.54746884 0.068864055 0.23472902 0.32348412 0.56204534 0.5353455 0.12637343 0.22546726 0.29220772 0.46604577 0.40061063 0.30888706 0.15258974 0.4362315 0.20678365 0.32811356 0.49523166 -0.04651794 0.2521135 0.563969 0.60628736 0.60344625 0.48269176 0.23737995 0.0040743537 0.039403476 0.23347917 0.26506674 0.2620316 0.61256945 0.6267657 0.5802103 0.47709656 0.033998497 0.04186081 0.22559029 0.34174642 0.32420185 0.03322955 0.0334779 -0.024510983 0.20205595 0.29193875 0.32661533 0.005144194 0.123906136 0.09515448 0.07108524 -0.11712051 0.3074526 0.104385525 0.1508405 0.15387504 0.13567114 0.08835113 0.27926618 0.44354898 0.4042812 0.45782763 0.48430827 0.46848285 0.3502316 0.35551903 0.31333065 0.29244053 0.33805206 0.33112848 0.27121708 0.17157835 0.15261109 0.21283466 0.1599478 0.17965335 0.13064857 0.20947827 0.44820046 0.44033146 -0.16467233 -0.082881495 0.08980111 0.030674316 0.06444849 0.10157752 0.39578775 0.27258018 0.33247924 0.4202776 0.3693087 0.34706783 0.22458906 0.08819419 -0.02424924 -0.017196238 -0.09345691 -0.16568537 -0.0035612434 0.16191497 0.26245657 0.18668361 0.29139313 0.13602945 0.10392832 -0.020157501 0.2522553 -0.13829768 0.25074857 -0.121834725 -0.40489605 -0.12018682 0.026928067 0.1400981 0.05285096 0.03359586 0.31717235 0.07568874 0.03847277 0.5856708 0.5638592 -0.002840864 0.5419154 0.2083241 0.074879095 0.28570974 0.24432077 0.3956036 0.31461397 0.51338696 0.37971658 0.5616892 0.33729702 0.40269285 0.43095344 0.5317549 0.4787131 0.40110922 0.026266769 0.3785901 0.4293344 0.4620794 0.33418226 0.18597579 0.13681929 0.03070573 0.40977186 0.20152996 0.18205497 0.54791236 0.30367637 0.2067178 0.21424556 0.61212873 0.604103 0.4767487 0.41539574 0.21974528 -0.14026123 0.11657439 0.21806711 0.26466185 0.22699396 0.45870543 -0.008973192 0.02215746 0.0014828974 -0.05153729 0.2689746 0.00853103 0.02199077 0.039057508 0.13295737 0.11780209 0.1657424 0.1618346 0.11815552 0.1050127 0.11114387 0.047039628 0.0734633 0.380763 0.28819454 0.14827423 0.114920124 0.11360855 0.121171966 0.32497662 0.3622129 0.39615944 0.4358641 0.33807838 0.3484253 0.33513469 0.2931311 0.29150754 0.33919087 0.36013475 0.31554836 0.24704736 0.18584709 0.26365632 0.09359017 0.017573468 0.06844528 0.13652974 0.19672073 0.24853447 0.12166387 0.20350325 0.120180294 0.17968008 0.24259786 0.22772399 -0.27097443 -0.0992163 0.13674326 0.046026602 -0.010822803 -0.09540631 0.12835151 0.14634675 0.18475035 0.15457949 -0.08442889 0.19140008 0.0842388 0.02983348 0.020226939 0.0015920587 0.024616858 0.04946305 -0.011985084 -0.10336344 -0.18744916 0.001721032 0.31796187 0.37130678 0.31143016 0.12218131 0.10516563 -0.004629813 -0.09482908 -0.19924238 -0.40022305 0.24440289 0.22217326 0.25447392 0.047486167 -0.015220173 -0.10342461 0.10979475 0.116815254 0.16910988 0.17798685 0.13491592 0.2341459 0.11316874 0.19533023 0.02540612 0.24501601 0.10752423 0.038929764 0.2330835 0.2552023 0.26709467 0.46794462 0.3853482 0.52799034 0.47977152 0.45643023 0.43748233 0.3773147 0.40421832 0.46835786 0.48831087 0.30523336 0.17234834 0.10826508 -0.10024709 0.23694111 0.3812678 0.121998414 0.04869432 0.5112383 0.16842395 0.16935182 0.5847821 0.52832705 0.31478578 0.10386373 -0.10453581 0.05252328 0.11440936 0.1977952 0.4703539 0.42833227 0.32074767 0.22256023 -0.036656737 0.03047029 0.024358004 -0.12645482 0.04880651 0.10156265 0.20473653 0.19290364 0.18083225 0.17718644 0.15241309 0.1111618 0.11570776 0.1165587 0.06213952 -0.018572578 -0.013731122 0.28212395 0.30278832 0.31883112 0.30584115 0.21774104 0.17976637 0.26514396 0.009793267 0.01103303 0.07131291 0.14201307 0.17390782 0.14487109 0.2099762 0.2222904 0.259986 0.25655338 0.09038296 0.07238311 -0.19234711 -0.028613638 0.18895657 0.124580815 0.16956788 0.21299744 0.45835227 0.5121108 0.022323921 0.045679927 0.24730396 0.34935692 0.39773244 0.42871463 0.46007782 -0.08119425 0.10807262 0.11003482 0.06932742 -0.43035242 -0.10714772 0.23992372 0.34962475 0.4676011 -0.23309554 0.21665195 0.2499301 0.23215201 -0.13877735 -0.052426346 -0.17725125 -0.25832468 0.23169097 0.21066624 -0.15670817 0.067098185 0.11669503 0.18216866 -0.16928867 -0.087614685 0.12987164 0.055785235 0.00016054045 -0.009812361 0.20146626 0.17510933 0.29434258 0.4430965 0.37266862 0.38220322 0.43506086 -0.29170558 -0.12070625 -0.015240928 0.20277523 0.31535682 0.36723003 0.36281025 0.0056397635 0.4561866 -0.01902182 0.08818999 0.52137065 0.47959507 -0.10388467 0.42214495 0.37626952 0.24549654 0.15112075 -0.08311749 -0.075960636 -0.035303578 0.07497461 -0.061524935 -0.0053509884 -0.18830575 0.13669206 0.14155605 0.15320556 0.12969175 0.24915573 0.2495695 0.13319656 0.08160798 0.0489588 0.018805385 0.07463466 0.16324419 0.23091719 0.26713604 0.2693737 0.2585836 0.24993931 0.198324 0.062246315 0.1923947 0.26487145 0.2616971 0.25227314 0.16191038 0.20770545 0.19504905 0.14615218 0.60679 0.58771443 0.21185565 0.24151903 0.14527299 -0.023219192 0.020699553 0.080065265 0.12329223 0.5389147 0.5556015 0.5309377 0.4992299 0.14336997 0.18176821 0.051717795 -0.00882726 0.06589064 0.15022764 0.16530187 0.19181362 0.49262583 0.47310185 0.47974414 0.055784944 0.27005094 0.14326994 -0.006010674 -0.03266863 0.038421832 0.19256343 0.2160716 0.21145801 0.23245794 0.18353644 -0.1487261 0.21449423 0.14484546 0.23553288 0.4347038 0.5669863 0.031918153 0.03482274 0.2578802 0.30495092 0.3774711 0.5748029 0.038510114 0.117792495 0.11676456 -0.033797994 0.25888568 0.26879972 0.22920845 0.40844855 -0.3158676 0.26445052 0.13611612 0.110767335 0.24100086 0.17394844 -0.2415646 -0.26152414 -0.31318906 0.15369968 -0.02621629 0.15011631 0.027506221 0.19559805 0.3816446 -0.19610634 0.42511356 0.50630033 -0.14228438 0.20693068 0.4950056 0.03582914 -0.048783064 0.28843227 0.30966482 -0.2904422 0.06076518 0.17861778 0.25540602 0.3123257 0.17166269 -0.42904478 -0.17948492 -0.16121179 0.23710756 -0.13707641 0.42571563 0.42107052 -0.09673572 -0.06526613 0.29248166 0.21629658 0.077133834 -0.12795496 0.104493685 -0.021273468 -0.1356236 -0.108760566 0.15813495 0.16448562 0.14455146 0.059000704 0.099834025 0.079424396 0.17626423 0.18979105 0.16715273 0.2166808 0.030733086 0.014797173 0.25782803 0.23355043 0.20868519 0.25973076 0.252478 0.07475265 -0.03141021 0.0020282343 0.083206266 0.2027356 0.25299332 0.346595 0.25059962 0.257425 0.20838243 0.11398606 0.14552447 0.1658165 0.19452319 0.18349245 0.19277835 0.70016885 0.6835371 0.64846206 0.058648232 0.089524806 0.14669831 0.1571081 0.14409593 0.14254384 0.1562973 0.6352502 0.66074073 0.6325246 0.6089875 0.5482917 0.50781614 0.053654265 0.119803585 0.13883696 0.5156368 0.5571267 0.5501699 0.5146749 0.50202686 0.14427833 0.4342677 0.45035645 0.43809092 0.45573133 0.47208697 -0.014979674 0.14482 0.5819578 0.4518206 0.17762929 0.27548286 0.4202584 0.3597022 0.4059718 0.38393915 0.2337182 0.1848018 -0.0069018006 -0.23598777 -0.04535001 0.15213968 0.61204463 0.5995561 0.4