# vtk DataFile Version 2.0
Really cool data
ASCII
DATASET POLYDATA
POINTS 2716 float
24.315737 22.09635 -1.1886854
24.25744 22.111635 -0.6681803
24.292402 22.18522 -0.15881594
24.254932 22.827682 -1.8199717
24.125416 22.627745 -1.3989642
23.95941 22.741407 -0.6045512
24.192225 22.795385 0.033765197
24.222403 23.208225 -1.902298
23.933308 23.32727 -1.3884815
23.845657 23.490303 -0.5540441
24.121265 23.355734 0.13818914
24.262602 23.998417 -1.8127363
24.073286 24.052292 -1.3380493
24.015854 24.206532 -0.6515866
24.306747 24.177622 0.102639794
24.287163 24.675802 -1.02138
24.250149 32.22834 -4.152473
24.365602 31.93197 -3.9080791
24.32821 32.74136 -4.851863
24.06031 32.644646 -4.2599306
24.00497 32.65447 -3.6853774
24.258223 32.556396 -3.0663433
24.270908 33.479446 -5.0374846
24.005146 33.59703 -4.2935348
23.952911 33.39566 -3.6340218
24.19621 33.5697 -3.042511
24.319132 34.60878 -5.2087855
24.10615 34.370445 -4.4230094
24.092548 34.23013 -3.8322527
24.365429 35.008675 -5.156212
24.320866 35.23301 -4.582684
24.323156 34.883183 -3.872755
24.878788 22.148212 -1.8864875
24.72143 21.890226 -1.3695871
24.768541 21.750252 -0.5367684
24.759472 21.977007 0.00704512
24.778372 22.652243 -2.1962135
24.59853 22.682886 0.42763025
25.009546 22.823301 0.7928435
25.077885 23.33161 -2.593288
24.700298 23.332518 -2.3327265
24.464638 23.76635 0.5122506
24.959974 23.585773 0.9316648
24.87549 24.068098 -2.2471285
24.334877 24.37255 -1.6627772
24.529987 24.301203 0.26155743
25.012197 24.179201 0.90812767
24.563131 24.881361 -1.1043761
24.720676 24.949753 -0.40407452
24.937834 25.058832 0.086191446
25.260345 24.803333 0.9143846
24.998552 31.195024 -4.237462
25.045542 30.971315 -3.8090742
25.11811 31.19749 -2.967047
24.77172 31.997473 -4.8967624
24.589195 31.762325 -4.2356677
24.673645 31.534534 -3.396143
24.82397 31.749372 -2.807682
25.244488 32.82258 -5.8842506
24.62179 32.590996 -5.0850506
24.397823 32.327526 -4.6924386
24.723862 32.47868 -2.5993474
25.049395 32.542892 -2.2852113
24.951887 33.63118 -5.923421
24.524784 33.401207 -5.454025
24.511738 33.523808 -2.6395829
24.894865 33.557083 -2.2696755
24.859966 34.59477 -5.945079
24.496105 34.47098 -5.46797
24.41899 34.518356 -3.5306044
24.616013 34.17636 -2.8145251
24.923477 35.25601 -5.7934923
24.584282 35.395535 -5.4289746
24.472063 35.615704 -4.662575
24.757862 35.36087 -3.8001363
25.106346 34.77395 -3.0378377
24.907026 35.922977 -5.29395
24.79768 35.90056 -4.544904
25.351902 21.43439 -0.77392393
25.424143 22.086191 -2.0083706
25.434034 21.672754 -1.3138199
25.362162 21.55613 -0.48758566
25.443401 21.83393 0.07394594
25.48234 22.957031 -2.680197
25.433777 22.52716 -2.3767796
25.567562 22.609468 1.055156
25.648537 23.418055 -2.6718493
25.630129 23.467339 1.43257
26.090347 23.970432 1.7845396
25.379585 24.211475 -2.5020864
25.706217 24.41989 1.4342356
26.05159 24.46631 1.6877759
25.32456 25.23039 -1.7480991
25.854115 25.748138 0.4190245
26.229168 25.209587 1.6198714
26.099413 26.324968 -1.6458404
25.84608 26.396542 -0.7750889
25.686094 30.961458 -4.913852
25.563688 30.675364 -4.3410134
25.667366 30.440588 -3.8975275
25.381804 30.96181 -2.5549674
25.9422 31.838858 -5.7927856
25.543993 31.997864 -2.061452
25.672207 32.586452 -6.0020466
25.854073 32.6745 -1.7745401
25.519129 33.792187 -6.48362
25.686317 33.515305 -1.8228104
26.002695 34.317245 -6.699778
25.400888 34.530163 -6.375922
25.33004 34.15717 -2.20031
25.623817 35.21916 -6.248118
25.470175 35.507458 -3.4713066
26.438957 35.85931 0.6401166
26.28034 35.928226 1.2925481
26.39704 35.87911 2.2184126
25.583817 35.91296 -5.7487583
25.238544 36.34938 -4.770487
25.42132 35.946045 -3.9267313
26.333323 36.47794 0.75034
26.297907 36.53008 1.5647799
26.401815 36.427307 2.2315795
26.381315 37.086277 0.84691393
26.380709 36.994022 1.3160635
26.302254 22.101006 -1.7964077
26.14688 21.767176 -1.2550797
26.363708 21.761717 -0.26256374
26.160767 22.003365 0.51280296
26.280834 22.590363 -2.210162
26.181664 22.66084 1.2277857
26.42731 23.289576 -2.5768075
26.555576 23.451733 1.770174
26.688557 24.680918 -2.6019917
26.767622 24.369886 2.0483449
26.622347 25.034683 1.941339
26.784119 26.341549 -1.9510078
26.528404 26.485668 1.3291463
27.104637 26.347584 1.9467049
27.017763 27.700119 -0.96844643
26.73108 27.503721 -0.4294846
26.781687 27.538929 0.36872655
26.80855 27.331194 0.93921643
27.27032 29.115402 -3.4225616
27.174343 27.938791 -1.1617129
27.191359 30.092066 -5.466845
26.964529 29.608175 -3.4509227
27.211117 29.489809 -2.929677
27.198868 29.313898 -1.8137136
27.439304 29.334759 -1.0038949
27.194517 31.080036 -6.3774476
26.538637 30.372942 -5.020989
26.782051 30.532312 -1.8801565
27.319107 31.700823 -7.332493
26.87492 31.515621 -6.4396143
26.286537 31.188469 -1.8258182
26.891977 32.234825 -7.0476885
26.748253 32.588844 -6.6322236
27.246372 33.02312 -7.7447968
26.308681 33.29055 -6.8227725
26.322416 33.492138 -1.667969
27.025326 33.78498 -1.3024752
27.17892 33.517097 0.54024
27.280031 33.338005 1.4319289
27.307463 33.788685 2.30012
26.616716 34.41727 -6.9481173
26.74846 34.599476 -2.30062
27.39245 34.788883 -0.5631203
27.117292 34.402374 0.40369192
26.938057 34.15147 1.324241
27.366922 34.60935 2.4729905
26.608385 35.31608 1.0304369
26.548138 35.246643 1.3951695
26.624754 35.746334 2.4457896
27.041513 35.80679 2.892568
26.53508 36.361748 -5.1758304
27.313595 36.503567 -3.67093
26.638767 36.22475 0.18267041
26.480724 36.427437 0.35776675
26.561363 36.60784 2.5174222
26.854856 36.424286 2.8547423
27.422874 37.981033 -7.389676
27.433187 37.684586 -6.6013517
27.230434 37.155376 -4.2765217
26.640503 37.251404 0.70762426
26.601639 37.392796 1.5173962
26.785358 37.25111 2.343185
26.991598 37.018112 2.7931826
27.128422 38.80629 -7.2917843
26.90113 38.778927 -5.6461134
27.198092 37.832783 0.8265325
26.964775 37.832348 1.4634249
27.08054 37.80566 2.0153055
27.414764 39.59892 -8.562163
27.215025 39.709805 -7.226849
26.931177 39.250923 -6.3607855
26.865297 39.53875 -5.386568
26.978952 39.484406 -4.886135
27.298813 39.82387 -7.776432
27.217472 40.294888 -6.239624
27.047392 40.05997 -5.493857
27.183376 40.097546 -4.9696584
27.216385 22.26688 -1.3720489
27.499619 21.949974 -0.4050552
28.241203 21.513313 1.4037207
28.003252 22.098299 1.9871535
27.421204 22.483084 -1.4657341
27.371178 23.809935 -2.2181063
27.621365 23.965435 1.7769375
27.299692 24.134882 1.9954989
27.49757 25.780535 -2.5661871
27.497593 25.63766 2.3442042
27.95551 25.635736 2.6385312
28.221987 27.110949 -3.4276452
27.65513 26.725801 2.4098682
28.384516 27.405008 -5.908542
28.136824 27.882221 -4.6805987
27.70615 28.008677 -2.4020233
28.263876 27.34614 2.6930275
28.163311 28.601421 -6.2518578
27.888123 28.732977 -5.255231
27.71102 28.76979 -3.7708433
27.600412 28.285927 -2.0398738
27.431057 28.363157 0.7658346
27.834333 28.635334 1.0329666
27.996178 28.150858 2.2768059
28.386532 29.105581 4.411082
28.207977 28.850613 5.5953197
28.117609 28.980576 6.157913
28.12807 29.734917 -7.218987
27.72459 30.13146 -6.208806
28.356844 29.554823 1.5339054
27.989418 29.935215 4.977568
27.942673 29.684673 5.5591516
28.061852 29.536556 6.4476547
28.225714 29.705772 6.860153
28.038328 30.730686 -8.203276
27.561068 30.581963 -7.117748
28.004776 30.990807 0.4876157
28.273392 30.003185 4.002849
28.150686 30.452023 4.808244
27.981201 30.257092 5.5666447
28.140783 30.336395 6.4680967
28.203802 30.151766 6.794598
28.066673 31.736967 -8.997474
27.674343 31.31194 -8.259054
27.685547 32.00939 -0.5983131
27.897303 31.728672 1.2926426
28.317783 31.506304 2.502666
28.352388 31.043465 5.0639873
28.190128 30.898632 5.860946
28.114965 30.78774 6.071165
27.927803 32.419407 -8.924804
27.741793 32.323112 -8.639441
27.92389 32.294807 1.4878049
27.691673 32.833 2.1335733
28.120869 33.08269 -8.822478
27.494259 33.08105 -7.982074
27.564573 33.43029 2.572508
27.882614 33.66621 2.9156518
27.571625 34.50419 -0.49269146
27.497126 34.561268 2.851892
27.734402 35.67514 -6.7635403
27.24842 35.607822 -6.470386
27.452587 35.634045 -2.692226
27.62674 35.902653 3.2014427
28.038435 36.96426 -6.9714065
27.477774 35.835068 -6.032791
28.021587 36.02005 -1.3156377
27.388195 36.500652 3.1527185
28.232552 38.096382 -10.998494
28.087978 38.15275 -10.608327
28.008745 37.94187 -9.313668
27.701057 37.89767 -8.220818
27.767984 37.47352 -6.568623
27.755047 37.357563 -3.7019048
28.065435 37.477463 -3.016161
27.65144 37.35622 0.03582716
27.634993 37.29355 2.8650258
28.19907 39.00421 -11.7584305
27.784393 38.710175 -10.340272
27.645592 38.839607 -9.518886
27.348822 38.846584 -4.453485
27.800255 38.66291 -4.3067284
27.502483 38.021935 0.7748009
27.426497 38.110744 1.4081217
27.545233 38.024574 2.0232334
28.244272 40.040516 -14.948884
28.271034 39.824814 -14.517269
28.345142 39.7393 -13.232159
28.307528 39.416203 -12.697847
27.99982 39.739418 -11.072633
27.880953 39.50333 -10.4450035
27.76781 39.649128 -9.450958
27.60601 39.330135 -4.3089943
28.268646 40.67249 -15.117755
28.065903 40.563587 -14.354962
28.092543 40.465084 -13.882149
28.15527 40.686054 -12.322654
28.255892 40.052086 -11.582878
28.12307 40.45297 -10.410221
27.534552 40.216496 -7.42424
27.572622 40.59908 -6.178007
27.481623 40.53868 -5.4297256
27.634705 40.317684 -4.7661242
27.931288 39.922337 -4.310152
28.18797 41.289764 -14.913297
28.114927 41.181885 -14.424663
28.29179 41.622997 -12.86108
28.376993 41.499424 -11.434299
28.31582 41.102535 -10.832665
27.949274 40.67005 -7.2159376
27.726627 40.688423 -6.2587185
27.824566 40.808414 -5.7494745
27.794912 40.602215 -4.968215
28.474237 42.164654 -11.501886
28.97015 20.802078 1.12133
28.966778 20.65797 1.595264
28.871702 20.88523 2.260329
29.287477 21.249216 3.4077978
28.156233 21.727427 0.5522879
28.54908 21.447386 2.3873563
28.970053 21.651686 3.298946
28.126371 22.605494 -1.0515873
28.718645 22.866594 2.5421042
27.998762 24.092665 -2.2423992
28.324903 23.529991 -1.5511438
28.511194 23.579376 2.4209514
29.208424 25.77145 -6.1907673
29.14911 25.961422 -5.3415833
29.08228 25.898441 -4.627852
29.302053 26.56157 -7.606281
28.86246 26.780632 -6.383802
[...]
POINT_DATA 2716
SCALARS features_00 float 1
LOOKUP_TABLE default
0.95127064 0.9421406 0.89691126 0.91165674 0.9519719 0.94972384 0.8556918 0.88799167 0.9279889 0.9139081 0.80254734 0.84056616 0.86509407 0.83644706 0.72297275 0.7827213 0.55980307 0.5558451 0.53150004 0.58881724 0.6355511 0.64780974 0.5783299 0.6563769 0.68277216 0.6596091 0.63092864 0.6599082 0.66197544 0.648219 0.6589073 0.6396321 0.9041941 0.93246245 0.906839 0.85877997 0.87648404 0.7789073 0.6854644 0.81601614 0.84236807 0.6777781 0.58912325 0.77953285 0.8073453 0.66719365 0.5450004 0.7305107 0.6718632 0.5791584 0.46664935 0.45885742 0.47474262 0.5122453 0.44240338 0.5108353 0.5538717 0.5685161 0.3550809 0.47266182 0.5098417 0.5965747 0.540176 0.44996345 0.5106157 0.60790265 0.5354928 0.54571813 0.5978836 0.6300244 0.5854564 0.59948385 0.6438246 0.65764517 0.6031601 0.5225402 0.6602341 0.6468247 0.8762382 0.86366415 0.8815505 0.8639965 0.82208526 0.80645514 0.8362293 0.63504237 0.7657703 0.47919595 0.3638303 0.7244035 0.40856493 0.34496492 0.6104852 0.38916034 0.2896948 0.36177328 0.38752636 0.31604546 0.35554874 0.3492382 0.45928815 0.22902577 0.4665363 0.2787409 0.4076632 0.3626173 0.4118905 0.3333836 0.45617068 0.45411134 0.4862747 0.47522804 0.5218239 0.60871315 0.65543306 0.59412944 0.64153033 0.5242503 0.6199267 0.6898502 0.71538234 0.67012334 0.69922525 0.74229157 0.7811557 0.7390406 0.71540326 0.71874154 0.50692457 0.6769274 0.31473732 0.5944061 0.23680454 0.23974043 0.27980956 0.26478514 0.19510558 0.005601868 0.12488587 0.24135989 0.2527594 -0.028572194 -0.04429561 0.050591037 0.08061945 0.0023542047 -0.097079866 -0.10673253 0.13168119 0.14954013 0.14003034 0.21731336 0.13737412 0.30364236 0.16637592 0.15601908 0.20755382 0.20592551 0.30058488 -0.09108171 0.20841426 0.26953974 0.35524324 0.22666585 0.21069911 0.15654393 0.2830705 0.36310264 0.45878965 0.48325676 0.5183916 0.63446707 0.62240505 0.5125211 0.025534026 0.49376556 0.55725586 0.7326182 0.706069 0.26968402 0.25866604 0.049281508 0.652985 0.72015244 0.75425446 0.74424434 0.42916715 0.57076055 0.63732404 0.71293956 0.7388802 0.3369127 0.46656865 0.54787934 0.5906419 0.569641 0.40924656 0.52104205 0.57999396 0.5841683 0.55195916 0.45804515 0.46738613 0.43349844 0.49894422 0.50008816 0.13507523 0.16910861 0.3234435 0.14537126 0.07265481 0.014978202 0.11396408 0.1888969 0.09085223 -0.12249534 0.04124897 0.0667063 0.0482011 -0.03342769 -0.13143632 0.13479854 0.0650617 0.04592888 0.3246038 0.45895985 0.48782536 0.1360709 0.06444652 -0.09678714 0.48080203 0.5090959 0.51956505 0.5082141 0.31573987 0.18160832 -0.118098825 0.28234503 0.48016793 0.5211237 0.53101563 0.5211786 0.36430758 0.3179907 -0.07198353 -0.0348307 -0.1052441 0.49603555 0.5228338 0.5261378 0.35086817 0.3342723 0.07847998 0.21550886 0.32230526 0.23954026 0.30464384 0.30765116 0.13463238 0.45096081 -0.016284574 0.20722885 -0.03901932 0.5907525 -0.08698967 0.16525401 -0.081450984 0.6736938 0.19402131 0.22245978 0.25193307 0.24901986 0.16142939 -0.03281779 -0.06317604 0.43317014 0.71366143 0.21005033 0.24456766 0.27153283 0.43208057 0.34504023 0.5951712 0.6712466 0.7033481 0.39757693 0.37686312 0.28942108 0.23941281 0.20489961 0.21788572 0.23871975 0.4811802 0.4044227 0.37679496 0.3500309 0.21375483 0.19736019 0.18482731 0.42834032 0.50701636 0.56209993 0.5631671 0.5133571 0.39643946 0.3755595 0.22817066 0.17294577 0.18024063 0.40285492 0.48873222 0.5164764 0.5558448 0.20470208 0.45904818 0.48107326 0.48987055 0.43353736 0.35246617 0.48591572 0.42100215 0.3575356 0.24619639 0.39234382 0.36040926 0.010552153 0.34232354 0.2761662 0.22079723 0.38414937 0.2933745 0.19455962 0.14778098 -0.027427616 0.20366916 0.2552881 -0.009029316 0.15920244 0.37841845 0.1857188 -0.0927407 0.42980123 0.37683082 0.28540766 -0.078651056 0.45691508 0.3820495 0.35319537 0.33136725 -0.16049612 0.48700732 0.36440098 0.48447278 0.48756224 0.47972953 0.47785643 0.36209142 0.46963823 0.4534908 0.29173914 0.33327776 -0.20371076 0.48901445 0.08112263 0.10051852 0.15629502 -0.1399795 0.6422435 0.4526853 0.33821708 0.26921505 0.16042419 0.11873901 0.59175915 0.62821746 0.4247085 0.40404925 0.35853717 0.40598643 0.48395532 0.48245654 0.371841 0.28476623 0.40163857 0.48650396 0.35240954 0.27363956 0.23386475 0.19217376 0.2616532 0.5805024 0.55109966 0.45367616 0.32812077 0.38398385 0.6209203 0.59994507 0.52544034 0.32264525 0.33683062 0.6037891 0.5791751 0.541294 0.53071356 0.53356385 0.5927003 0.49213558 0.4863891 0.51382 0.46556374 0.40262663 0.3723725 0.34890354 0.35591882 0.32657957 0.20674466 0.22130577 0.1869333 0.38278067 0.3777036 0.042516433 0.108704224 0.040106583 -0.13088632 0.47384322 0.5109606 0.5201772 0.3740648 0.38402057 0.37858835 -0.0809174 -0.10971184 0.42161983 0.4518206 0.50211847 0.38353842 0.0719734 0.048344117 0.18569124 0.3580561 0.34775132 0.0553628 0.16318412 0.2479057 0.1337772 0.25717098 0.2995565 0.29638144 0.24737929 0.28897774 0.2815858 0.35944194 0.3003548 0.2683451 0.28119975 0.102704376 -0.013627343 0.36629462 0.26611272 0.099865735 0.39389047 0.31651527 0.2677179 0.08676286 0.18469563 0.29262722 0.11850613 0.4768536 0.5148946 0.46274513 0.33509666 -0.23795952 0.51481044 0.48303884 -0.15351528 -0.13912742 -0.06312375 0.11029059 0.53526485 0.07671901 0.18614328 0.10247649 0.35571784 0.22548637 0.25582692 0.22231212 0.20437832 0.330759 0.20940654 0.37622255 0.330179 0.31969115 0.23457064 0.21784176 0.535799 0.4614179 0.5875051 0.5696027 0.25459743 0.34827042 0.6154958 0.64087903 0.25643814 0.25180823 0.31566536 0.3702673 0.38770908 0.6529919 0.62319046 0.57221437 0.4947579 0.28702387 0.35444126 0.37667888 0.5869539 0.53682685 0.45481175 0.6389312 0.60688376 0.52199495 0.45161754 0.66891265 0.6124087 0.43156 0.34260792 0.63480794 0.28683555 0.60063416 0.36096194 0.17108855 0.13159914 0.5401446 0.56600803 0.57767653 0.5786808 0.36993617 0.3631102 0.3448454 0.10267111 -0.015238762 0.5424306 0.55136347 0.3535182 0.5134835 0.25025448 0.38476762 -0.0067737624 0.2623047 0.28282282 0.051646315 0.2401972 0.24380425 0.16657428 0.1648962 0.2229051 0.21954176 0.11189682 0.15033919 0.09593608 0.106265925 -0.0016493127 0.341039 0.2970264 0.46392322 0.42400748 0.041221566 0.013285709 0.5124055 0.4673341 0.075840145 0.07626492 0.05031172 0.5193933 -0.15137091 0.06543298 0.10192984 0.5402942 -0.13059795 0.046380132 0.13201638 0.11826028 0.5715321 0.56166327 0.13546151 0.13747175 0.539106 0.11536466 0.09099428 -0.027163275 0.19116975 0.13356113 0.100850105 -0.079241104 0.03852324 0.13848409 0.248211 0.24072722 0.19767295 0.16267154 0.5894804 0.51449025 0.17908165 0.1804111 0.22144848 0.5865879 0.3276 0.62725955 0.37906003 0.3058831 0.66259766 0.65642667 0.3610483 0.41905358 0.40197033 0.5733323 0.54755324 0.43078047 0.41258007 0.40684408 0.4123529 0.43188134 0.6690369 0.64667547 0.594242 0.4964875 0.3930513 0.67415076 0.2710897 0.25753793 0.65793335 0.27044046 0.2295419 0.20552918 0.26877844 0.1572047 0.5053029 0.5421785 0.5810046 0.5824023 0.377321 0.35341775 0.31580973 0.23701917 0.35760373 0.5950974 0.5843904 0.46594197 0.3541558 0.19885872 0.5665786 0.46676433 0.36261925 0.5204326 0.3605991 0.29070368 0.14250767 0.093813024 0.3109228 0.19987047 0.23354164 0.3945653 0.021131685 0.017093169 0.106511824 0.21225917 -0.048317373 0.10967305 0.08876768 -0.17298178 0.38721812 0.47888654 -0.06145452 -0.1994659 -0.0841212 -0.06425533 -0.02003599 0.14789802 0.42237484 0.50636727 0.54937935 0.51244956 -0.011075355 0.14082523 0.23280515 0.58045673 0.6361036 0.62914664 0.4688708 0.060622133 0.009180699 0.055753592 0.4763282 0.6303673 0.66522413 0.647099 0.32109126 0.030551026 0.055427007 0.5683531 0.62753105 0.6301593 0.63414824 0.5854306 0.12790893 0.6155302 0.60998076 0.57168317 0.07355528 0.1365245 0.13723467 0.5451677 0.0460827 0.16948189 0.20107193 0.4432601 0.079798274 0.06453437 0.123200186 0.22484651 0.27880812 0.6051056 -0.15359989 -0.13144852 0.06644539 0.054831166 0.6395154 0.6224741 -0.0013202578 -0.124652505 -0.106402285 -0.14796329 -0.15264446 -0.031935576 0.064377084 0.18616931 0.22451782 0.20056611 0.15228489 0.11438857 0.65614957 0.6225171 0.107561104 0.13098769 0.16533029 0.16058975 0.6600529 0.2634831 0.64786816 0.42576295 0.37511843 0.57478565 0.53598535 0.4773659 0.44672197 0.44482738 0.4632998 0.4551379 0.4909862 0.4671403 0.4595372 0.45874316 0.62004995 0.56729805 0.4933231 0.37186706 0.643327 0.63871473 0.54383916 0.43409204 0.35184512 0.28336406 0.26893678 0.57763696 0.24936613 0.46972972 0.52591354 0.5401124 0.33806345 0.5417736 0.55772114 0.57235384 0.61281824 0.5793387 0.55440384 0.48438704 0.36033958 0.34340912 0.5711381 0.5880395 0.5385996 0.46333554 0.13199134 0.54156286 0.5390498 0.53670406 0.48682314 0.40726727 0.36600465 0.5757805 0.6582887 0.22720945 0.5351012 0.63577956 0.08193365 0.49038815 0.59638417 0.17706092 0.35129607 0.16424052 0.15226272 0.19153616 0.44052994 0.4321031 0.5757947 0.40095732 0.6184292 0.40094626 0.33361828 0.6109201 0.2779593 0.5970895 0.600217 0.50588506 0.060490422 0.52923816 0.56423885 0.5687754 0.5368941 0.5686784 0.23046124 0.49598175 0.444502 0.22721338 0.24737057 0.30885878 0.31954217 0.36325234 0.6479509 0.56035316 0.058699913 0.20124309 0.32583284 0.380389 0.39269984 0.693401 0.6987401 -0.15022883 0.13944452 0.11309761 0.3460056 0.675732 0.7116635 0.14898416 -0.2453767 0.015005052 0.009870579 0.15926518 0.6969577 0.20296021 0.1545048 0.11880387 0.06581281 0.1582841 0.6203891 0.44718105 0.42021158 0.2295872 0.25152743 0.5139743 0.52135587 0.49090195 0.48790914 0.5575025 0.5809585 0.52430344 0.3957699 0.50571054 0.5039018 0.56055725 0.5874114 0.5637826 0.5427133 0.47554305 0.35609034 0.21775293 0.23879352 0.23300812 0.22007853 0.5527879 0.39456216 0.22483127 0.2052135 0.37594205 0.46526694 0.52794766 0.32167006 0.29620278 0.12018913 0.4798723 0.53548354 0.54680926 0.6491028 0.6502435 0.63620025 0.44060287 0.31686372 0.5477098 0.6083302 0.6290345 0.26948005 0.51183224 0.5635666 0.5021656 0.6625018 0.3530067 0.69222873 0.7271036 0.18683454 0.7269782 0.6842829 0.272756 0.4647641 0.6727776 0.3121673 0.30109942 0.29748106 0.17257734 0.55482864 0.58713764 0.20523462 0.5642792 0.5438306 0.3695404 0.37909594 0.4874627 0.5262412 0.057596926 0.29933268 0.4631972 0.22269604 0.33510512 -0.06873579 -0.122022785 0.396909 0.65305114 0.6181464 0.15221356 -0.010162421 0.4451331 0.46023086 0.47402334 0.6898078 0.10534686 0.26468262 0.4105627 0.44835994 0.71007174 -0.0052081198 -0.19687319 0.7073468 0.2972318 0.34056115 0.30442166 0.36000353 0.66845405 0.43917105 0.4145879 0.44673562 0.2408624 0.37574854 0.3999737 0.40403324 0.5539218 0.56713593 0.4839146 0.4810068 0.52097034 0.39694178 0.31999376 0.40624475 0.56010664 0.5882804 0.55048203 0.5298781 0.5477942 0.57168484 0.43906853 0.3573491 0.53247464 0.55098796 0.5536941 0.46759087 0.202981 0.21730891 0.21403393 -0.103609286 0.21136424 0.17759706 0.17194453 -0.10577611 0.31223476 0.40282393 0.48323667 0.6668037 0.6904793 0.6680339 0.24025285 0.4771362 0.48242867 0.60555106 0.63609767 0.23762597 0.24046032 0.43891856 0.5764437 -0.13141991 0.20799963 0.5304151 0.5543949 0.6655034 0.7081549 0.7334466 0.29617423 0.7540307 0.23353937 0.7368258 0.3039155 0.6520957 0.70306957 0.6311346 0.31365833 0.2968158 0.27741322 0.43464816 0.095895275 0.44130528 0.0068268552 0.46351087 0.11617312 0.32615292 0.34442085 0.31335956 0.03880556 0.15041025 0.2819857 -0.013675697 -0.086537376 0.62157124 0.45128396 0.4377214 0.67521584 0.6385356 0.5102879 0.068411 0.3519059 0.4113602 0.43121898 0.67080116 0.6243564 0.55732346 0.3479061 0.26356953 0.1337874 0.33334622 0.60429025 0.5201608 0.4799422 0.39430544 0.21926615 0.329983 0.27448642 0.3955962 0.56614363 0.52854645 0.51577514 0.50621104 0.51841295 0.30640572 0.40957248 0.3497671 0.33566165 0.47143587 0.476977 0.43052596 0.5941037 0.5851306 0.4194014 0.50126725 0.496601 0.49234813 0.34339306 0.45862964 0.46631846 0.48573944 0.49047112 0.40845585 0.36549768 0.38197663 0.26209193 0.20616107 0.2084163 0.2579647 0.32879847 0.20964332 0.20645735 0.18141854 -0.018702678 0.09231117 0.19567822 0.33194956 0.4291544 0.6914841 0.63590705 0.6017887 0.16130152 0.3869201 0.58440936 0.60667455 0.53822356 0.20335555 0.35227847 0.5572489 -0.38195264 0.51581234 0.48003697 0.6013707 0.44986653 0.6606387 0.712229 0.70015705 0.73388815 0.7473022 0.2901633 0.34343904 0.32293734 0.52311856 0.3518372 0.33202505 0.23129441 0.358909 0.02658128 0.17371033 0.14516051 0.14327754 0.22993946 0.16709504 0.17164816 0.063191086 0.18256643 0.20932622 0.22140236 0.31657392 0.26749533 0.34345368 0.34355912 0.44164044 0.3962714 0.14200357 -0.03979683 0.12443096 0.24122542 0.46342024 0.3897905 0.03653589 0.1282802 -0.031014763 0.340775 0.42419896 0.39233097 0.49954104 0.49704581 0.14852539 0.41159272 0.36354065 0.33301786 0.3622122 0.31414798 0.38119155 0.40299398 0.3712805 0.24413937 0.2204058 0.30917966 0.22529788 0.22047377 -0.06433359 0.042186294 0.22238502 0.06095636 0.085877396 -0.2537117 0.5782453 0.5463859 0.087290406 -0.07707257 0.5383761 0.53116035 -0.12533364 -0.12820601 0.45036304 0.24812448 0.51144135 -0.08393055 -0.039312616 0.35241827 0.5301639 0.63644856 -0.018152483 0.2594382 0.6522567 0.3053639 0.35903051 0.34312508 0.36692274 0.3341326 0.3498377 0.30869848 0.32189626 0.11606377 0.18287104 0.16342598 0.02275335 0.19316871 0.20292294 0.21587887 0.020161837 0.21735361 0.008156329 0.23549448 0.15754676 0.6665542 0.692533 0.19655176 0.12583038 0.670979 0.6913926 -0.034250066 0.085209854 0.05980609 0.04669768 -0.012785412 0.18222508 0.03631675 0.40040344 0.38927168 0.13455255 0.14912748 0.30250823 0.37129822 0.44806814 0.21922772 0.20997551 0.30713278 0.27283257 0.2743599 0.21550617 0.36389244 0.33568427 0.39754045 0.39013085 0.35301313 0.30059916 0.22684774 0.23014882 0.248301 0.41655982 0.23811936 0.2740038 0.33503604 0.4532942 0.3164488 0.1051037 -0.269898 -0.15098028 0.2951421 0.38202947 -0.24954656 0.08968036 0.35600388 0.08244498 0.043770887 -0.15978852 0.13210113 0.048277445 0.046958305 0.28126633 0.16894731 0.3465233 0.36315817 0.38688406 0.39107707 0.17018068 0.3616107 0.3929301 0.3634073 0.39524055 -0.03642831 0.22134984 -0.0135897305 0.011269331 0.15544179 0.33373317 -0.1991243 -0.41424397 -0.2378244 0.67087847 0.14790367 -0.13402046 0.52205825 0.6773716 0.6902616 0.68334067 0.2116923 0.161135 0.0858469 0.0054144263 -0.0061556697 0.5578699 0.69878566 0.69249237 0.16482511 0.5251032 0.6453206 0.7044717 0.71288943 0.123839416 0.014832556 0.64321244 0.738716 0.21045205 0.18004662 0.118238166 0.28246522 0.15061082 0.09267521 -0.1962202 0.12525979 0.27905476 0.060842052 0.050769836 0.37504554 0.3719715 0.36243516 0.3004425 0.40391538 0.40877283 0.35951415 0.23800582 0.28009188 0.33268806 0.13464038 0.22207561 0.5020622 0.48218596 0.4511847 0.4301046 0.37111527 0.29524928 0.27174497 0.26326177 0.4854524 0.4369278 -0.032880127 0.3398143 0.21199146 0.23606855 0.08781719 0.093124904 0.08769025 0.16395932 -0.020399434 0.14502431 0.023842083 0.123983756 0.12853968 0.19842443 -0.016201489 0.17928758 0.32153437 0.28100675 0.33743328 0.38538903 0.2230076 0.4075214 -0.0080382 0.40780786 0.41576615 0.06888427 0.4386711 0.14316855 0.10149064 0.28278694 0.40737438 0.1419419 0.040952913 0.009983145 0.023378775 0.6597855 -0.005666204 -0.12582606 -0.042200297 0.11794329 0.66734046 0.19066432 -0.032491613 0.016045127 0.049571637 -0.024288915 0.47585118 0.73130596 0.2667787 -0.15858607 0.50632364 0.73552924 0.8314725 0.8044065 0.2894112 0.26865384 0.7494204 0.8643018 0.8645364 -0.019801125 0.15302727 0.13879625 -0.26263964 0.0061734803 0.16234377 0.13075255 0.0074659586 0.08852524 0.30121288 0.34470373 0.36353552 0.41133842 0.42385817 0.3861802 0.48185843 0.46962777 0.4656734 0.44013318 0.44769925 0.37021366 0.102066375 0.52620965 0.5158076 0.49321368 0.01042977 0.5318129 0.52682126 0.19813186 0.50440884 0.29714423 0.222721 0.16271406 0.19882551 0.20715806 -0.049151845 0.22278816 0.14140126 0.12508988 0.22669567 0.012155622 -0.039402336 0.124636196 0.28982487 0.33509353 0.36155334 0.3253556 0.39125198 0.20181163 0.4042198 0.41034096 0.187001 0.39307183 0.1999608 0.19814661 0.14388393 0.47131294 0.024966067 0.14242116 0.56184304 0.21842247 0.20441478 0.65991354 0.6663487 0.2858898 0.29317868 -0.14906423 -0.14512303 -0.06913863 0.040558435 -0.003794264 0.25666362 0.49564695 0.7617015 0.6910728 0.3050403 -0.27358988 -0.18801995 -0.11306551 -0.09870259 0.6294044 0.79256153 0.8911352 0.85372174 0.22532079 -0.33008766 -0.10328179 -0.033645898 0.28528172 0.18835971 -0.12147081 0.05567921 0.26022625 0.30254853 0.2757813 0.22512788 0.07336226 0.3993281 0.33766013 0.0559735 0.09524567 0.32114547 0.29928738 0.13882157 0.059540994 0.24189681 0.2502042 0.51588255 0.49575955 0.430428 0.30876777 0.51219743 0.16418794 0.177314 0.5490352 0.5145329 0.39420092 0.29152954 0.112608716 0.53251076 0.54689586 0.014059961 0.49739894 -0.08556332 0.3369457 0.1263097 0.13899025 0.246344 0.021874629 0.2629031 0.26994318 0.0083694905 0.21839866 0.40852934 0.14896324 0.4278532 0.42995918 0.33413842 0.3352184 0.3566571 0.3599676 0.27673966 0.23533 0.20870025 0.08087842 0.17639442 0.1665553 0.22715452 0.119864486 0.4533357 0.23343672 0.5744076 0.62432086 0.24041516 0.69758165 0.7000738 0.29080215 0.24953118 -0.107099116 -0.09990728 -0.06866812 -0.021282539 0.76066184 0.839072 0.822315 0.3178998 0.23558083 0.081092976 0.81285506 0.8512931 0.47930574 0.42700064 0.40039706 0.3802242 0.03297226 0.18130589 0.2707352 0.44768345 0.4658727 0.47399747 0.46475363 0.4411195 0.39829683 0.10622172 0.16991958 0.30944306 0.4109945 0.495986 0.4920162 0.45148796 0.423125 0.307603 0.14721142 0.17701314 0.1912089 0.16068323 0.16316417 0.5327065 0.5376527 0.46413332 0.31899232 0.23398305 0.16589977 0.50257415 0.5214967 0.17974716 0.293968 0.32752812 0.39258343 0.40439236 0.45781183 0.25122473 0.11536607 0.5120831 0.4370938 0.08425429 -0.020134903 0.1272073 0.30172718 0.45258763 0.48917878 0.6598135 0.41957617 0.2963457 0.49153203 0.62094784 0.32715654 -0.16990417 0.6458094 0.22738212 0.2434274 0.05201043 -0.011087764 0.11917403 0.031164866 0.26147735 0.15455094 0.34405795 0.43602544 0.37607962 0.48209667 0.47808087 0.48308545 0.47697282 0.45787054 0.45977038 0.19414392 0.03424719 0.23798054 0.23658934 0.22011329 0.2266837 0.09915613 0.19826564 0.12185052 0.13591683 0.1767014 0.16669494 0.16758005 0.4093628 0.192911 0.18366344 0.4998644 -0.1658698 0.66208583 -0.5182831 0.6082736 0.802078 0.7559654 0.43242586 0.20001492 0.14178343 0.5037255 0.53265643 0.5499971 0.4599415 0.5276143 0.52752495 0.27479622 0.33605933 0.36910152 0.49894744 0.49455434 0.510516 0.50167394 0.43350902 0.11619471 0.24452452 0.34813944 0.35710335 0.48440704 0.44687128 0.266396 0.09273869 0.090258196 0.15110844 0.23149481 0.24668652 0.28029191 0.21575053 0.21961606 0.28986844 0.34147337 0.26889646 0.17648274 0.17320785 0.38144857 0.48937726 0.46640104 0.43695575 0.21886891 0.35049522 0.30438817 0.31683064 0.36606422 0.45771968 0.5821574 0.32030246 0.34705287 0.49369347 0.57914364 0.71562177 0.77650964 0.30387384 0.2281665 0.05194436 -0.010364354 0.16812445 0.6849148 0.76700085 0.3910881 0.293979 0.06699346 0.00094602257 0.7317178 0.746804 0.32559502 0.2856325 0.658142 0.72570443 0.20605552 0.1375142 0.7235492 0.060663316 -0.011451937 -0.028074324 0.07658394 -0.072504446 0.042828944 0.30356076 0.39237878 0.109712 0.12375109 0.42318496 0.48201856 0.3291757 0.15090325 0.53612715 0.47861564 0.44620273 0.5141714 0.48591882 0.4756006 0.35108534 0.4674528 0.37509888 -0.040657636 -0.05972807 0.21396425 0.16129112 -0.015078049 0.20855898 0.15252061 0.057351172 -0.01258697 0.13171145 0.124996565 0.03873175 0.15552461 0.1615094 0.018113583 -0.010521561 0.14324625 0.20088577 0.17956866 0.20094578 -0.07210151 -0.29258108 -0.10835339 0.3367973 0.35660806 0.23491691 -0.027170602 -0.25243643 0.54149973 0.45670414 0.14798293 0.078065306 0.06653315 0.6700284 0.52966344 0.12659 0.5359108 0.5511937 0.5656444 0.44874716 0.52511925 0.497843 0.49918255 0.49066406 0.5221568 0.49163762 0.2640774 0.31397295 0.40261555 0.462369 0.50016683 0.17934413 0.31341392 0.25022805 