# vtk DataFile Version 2.0
Really cool data
ASCII
DATASET POLYDATA
POINTS 7816 float
28.370422 55.945698 2.9250412
28.25466 55.767406 3.5937636
28.289398 55.848022 4.297309
28.321846 56.378727 2.9437265
28.159983 56.35652 3.5726705
28.17867 56.448772 4.263531
28.383442 56.422447 4.817304
28.337896 56.946716 3.111794
28.303726 57.246742 3.5941622
28.356152 57.321926 4.256992
29.150454 55.013477 2.7979176
28.672054 55.131 3.7142127
28.840706 55.078438 4.178057
29.004913 55.8956 2.0366626
28.660961 55.6987 2.6065562
28.48228 55.42748 3.4861124
28.453009 55.56886 4.3642845
28.858276 55.798008 5.109867
28.947687 56.27585 2.0085247
28.558485 56.470043 2.4438972
28.63048 56.520473 5.2335725
29.135885 56.622383 6.247287
29.313726 56.966213 6.9226637
29.04932 57.057495 1.9741313
28.83296 57.535328 2.6176777
28.535849 57.688614 3.948616
28.63894 57.27954 5.3336663
28.985495 57.490494 6.383325
29.231815 57.4171 6.8581743
29.024254 58.233643 2.842868
28.853462 58.431854 3.7066214
28.888863 58.292175 4.513251
28.883196 58.135746 5.3478494
29.205809 58.222404 6.208916
29.290194 58.93094 3.0229986
29.19568 58.93911 3.5907419
29.137102 58.964745 4.331006
29.195665 58.742695 5.3555465
29.979427 54.236874 3.6230025
29.83685 54.365856 4.0148377
29.68155 55.068707 2.2364535
29.715746 54.73578 2.6720452
29.49358 54.54553 3.4238758
29.606184 54.599728 4.281183
29.504381 54.95187 4.9378843
30.208696 54.9515 13.79061
30.17141 55.06263 14.353893
29.404797 55.55505 1.9718091
29.425825 55.64875 5.732648
30.281796 55.933514 7.5161347
30.249414 55.584324 13.222269
29.851833 55.75758 13.764064
29.809397 55.691807 14.406891
30.05821 55.789604 15.033417
29.529566 56.508507 1.6811942
29.714504 56.477 7.1062613
29.834202 56.454796 13.780656
29.764563 56.43035 14.5054035
29.992502 56.48548 15.070417
29.492983 57.41186 1.8689107
29.567436 57.41597 7.209511
30.11243 57.496765 7.7287498
30.109823 56.993332 13.735191
29.963425 57.08127 14.451442
30.258219 57.285748 15.245196
30.355162 58.5843 1.1182684
29.448036 58.100418 2.0828502
29.554453 58.11341 6.9162426
30.34091 58.493484 7.7767005
30.405672 57.95411 14.844903
30.300098 59.591515 1.7890748
29.426737 59.189667 2.8733687
29.55286 59.492805 3.1291997
29.944149 59.437275 5.4122453
30.033875 59.027916 6.354102
30.249449 59.98333 2.1498985
30.2177 60.267506 2.4218383
29.964275 60.007957 3.4307861
30.214798 61.61301 5.6085806
30.036108 61.94263 7.771421
30.234688 61.925854 8.433312
30.404325 62.442764 4.9627237
30.174782 62.473545 5.571822
30.019682 62.502476 6.794757
29.964453 62.42219 7.5305676
30.103296 62.505646 8.303002
30.359446 62.560062 8.770087
30.278831 63.17461 5.563208
30.244057 63.435097 6.3811717
30.178009 63.23818 7.4549327
30.2546 63.14992 8.217666
30.38609 63.721813 6.395563
31.232117 52.944996 12.9939995
30.669237 54.1736 2.9213264
30.475567 54.11569 3.6352384
30.62885 54.290543 4.5181203
31.405659 54.084866 7.231001
31.03791 53.764835 12.612047
31.080761 53.585674 13.472141
31.100021 53.839954 14.285533
31.113663 54.23246 14.816225
30.979937 54.677345 2.2715712
30.605509 54.51515 2.5631328
30.361862 54.828323 5.341625
31.018095 55.06824 8.44724
31.41743 54.438206 11.069922
31.365444 54.60805 11.664366
30.531956 54.71696 13.561782
30.574247 54.695522 14.519854
30.745838 54.947357 15.055793
30.800358 55.63126 8.123505
31.339943 55.13457 8.991263
30.611307 55.488144 12.884218
30.522858 55.619846 15.393447
30.898855 55.829292 15.739774
30.762802 56.446342 1.5444558
30.786833 56.375885 8.331133
30.733824 56.347588 12.9371605
30.433529 56.41293 15.556099
30.842575 56.199226 15.813782
31.076065 57.92246 -0.23323837
30.602129 57.227024 1.0304075
30.710938 57.717026 8.284969
31.146109 57.449017 8.662759
30.543196 57.466442 13.655516
30.546156 57.53996 15.514043
30.83367 57.576443 15.885782
31.23009 58.852337 -0.81541294
30.999552 58.77892 -0.26873556
30.609907 58.453014 0.52253574
30.957092 58.482243 8.445556
30.83124 58.054317 13.912639
30.710241 58.294254 14.483234
30.845911 58.32274 15.546186
31.011423 58.208706 15.830497
31.338024 59.372185 -0.8167341
31.199259 59.428436 -0.5602179
30.758768 59.371006 0.5674604
30.560434 59.414745 1.379204
30.497313 58.974274 7.7302513
31.051325 59.856518 8.261924
31.141275 58.851326 14.979494
31.072779 58.814205 15.224899
31.36562 59.901623 -0.5479353
31.125095 60.170246 0.6760775
30.571226 60.33133 1.9058497
30.526909 60.47558 6.3823156
30.863714 60.63818 8.577974
31.083261 60.69359 1.5912852
30.915451 60.98245 2.5630686
30.520561 61.530586 8.609579
30.484417 61.818768 8.834985
30.659271 62.44651 4.7079773
30.627882 62.461143 9.041725
30.707302 63.37159 4.958327
30.492704 63.589676 5.4369383
30.447573 63.68381 6.0825
30.455317 63.53619 7.779144
30.511808 63.432755 8.350171
30.650358 63.097298 8.893627
30.94066 63.764034 5.0506577
30.773432 63.928658 5.570501
30.748678 63.955692 6.501552
30.746471 63.846127 7.415735
30.937431 63.794743 8.332603
32.453842 46.44282 5.5218954
32.068115 49.16257 7.8904233
31.836597 48.893806 8.739535
31.908762 48.864845 9.485556
32.07844 48.80815 10.095165
31.855932 49.547386 8.000043
31.577677 49.563305 8.655636
31.591362 49.49968 9.261196
31.799698 49.46656 10.144416
31.928497 50.51748 7.9647675
31.622213 50.441914 8.537859
31.612123 50.496986 9.551507
31.696959 50.338844 10.1012745
32.165665 50.458614 10.908749
32.218193 51.64199 7.6264205
31.919973 51.199715 8.612384
31.723358 51.18293 9.504148
31.848383 51.746754 12.393959
32.12343 51.53646 13.310777
31.969995 52.8482 8.432564
31.958538 52.09134 10.588542
31.594812 52.496403 12.244588
31.652002 52.496407 13.410782
31.931095 52.606655 14.247781
31.335962 54.15503 3.1019118
31.20839 54.107307 3.2370954
31.346426 54.40495 5.815819
31.525913 53.795822 7.538596
31.736351 53.59094 10.564234
31.490292 53.858265 11.397796
31.444532 53.60675 14.439245
31.744814 53.91823 14.881783
31.302835 55.022964 2.1733341
31.948837 54.166492 9.465417
31.587145 54.639297 10.5787325
31.757013 54.58512 15.310132
31.86141 55.205357 15.804362
31.793718 55.361942 10.58056
31.543669 55.35793 11.384081
31.638384 55.98692 16.117462
32.01833 56.855965 -0.3005941
31.706493 56.527256 0.8292827
31.666264 56.10741 9.332919
31.426582 56.526466 16.170105
31.825054 57.767216 -0.9935135
31.559704 57.49428 16.324553
31.768688 58.456726 -1.2767094
31.505085 58.28598 8.988319
31.699215 58.395 13.748921
31.591675 58.309593 16.148518
31.681574 59.30549 -1.1845366
31.398487 59.76544 -0.6413314
31.518894 59.161583 14.702607
31.584791 59.066086 15.363031
31.605392 58.768734 15.916704
31.870157 60.048306 -0.99133956
31.616667 60.23625 -0.4119165
31.588032 60.540966 9.063256
32.196144 60.63006 10.317923
32.35888 60.73177 12.532527
32.29454 60.991848 13.256477
32.03382 60.603268 -0.0742678
31.70105 60.677612 0.6210819
31.517 60.801384 1.3957517
31.579845 61.43667 9.37212
32.278557 61.445038 10.362013
32.244724 61.198742 11.582783
32.19083 61.630062 12.317732
32.15129 61.593895 13.459583
32.184017 61.66803 14.542884
32.254524 61.677094 14.945442
31.64496 62.68975 4.1287284
31.758108 62.425514 9.627066
32.300995 62.261303 12.450428
32.21659 62.204838 13.981394
32.28215 62.225292 14.545373
32.35743 62.08926 14.972754
31.845993 63.02541 4.3087535
31.729124 63.425564 4.602902
31.473875 63.324818 9.180076
32.05628 62.80018 9.838778
31.464832 63.85339 5.003225
31.487106 64.15836 5.5438952
31.64221 64.37662 6.578365
31.762259 64.33301 7.511983
31.548134 63.97853 8.367698
31.533426 63.735603 8.933026
33.21049 45.104847 5.0199947
33.118202 45.14737 5.531268
33.06388 45.278397 6.2510085
33.216297 46.223766 3.1237307
33.04223 46.117588 3.6239605
32.926983 45.738163 4.6250057
32.68689 45.79468 5.530549
32.749554 45.796677 6.2440944
33.20862 45.657715 6.9459157
33.155415 46.521233 2.985821
32.917015 46.570435 3.484913
32.664864 46.46323 4.6039057
32.536896 46.342728 5.4308553
32.610584 46.59781 6.3591876
32.88419 46.23772 6.8590703
33.364353 46.963737 8.221419
33.17431 47.07017 2.8795438
32.88623 47.157658 3.5255718
32.91659 47.473732 4.537477
32.55242 47.093006 5.521123
32.653713 47.121086 6.4814243
33.05812 47.485073 7.2152977
32.89696 47.791855 8.543811
32.623913 48.16125 9.522715
32.694324 48.213528 10.0753975
33.120895 47.960445 3.8898044
33.104435 47.972477 4.5479193
32.427624 48.532047 10.216439
32.75046 48.844707 10.916504
33.32535 49.17632 12.577673
33.26457 48.961536 6.5984864
32.624397 49.25554 11.19243
33.160957 49.81111 13.417586
32.586464 50.672142 7.164006
32.46647 50.718723 7.3770366
32.41714 50.2694 11.693533
32.691517 50.501877 13.35579
33.126656 50.78005 14.182897
32.841835 51.6442 7.027844
32.78698 51.94594 14.460342
33.45428 52.982826 -4.2551317
33.388382 53.012444 -3.8014584
33.183292 52.274635 6.4186554
32.323753 52.33701 14.331408
33.44631 53.187477 -4.3263326
33.419464 53.064243 -3.7979786
32.41043 54.39035 4.982754
32.364525 53.87383 6.1039004
32.60466 53.46798 14.856903
32.40836 54.959686 2.3067205
32.52202 54.878166 2.7237322
32.54395 54.462547 15.497602
32.728607 55.169785 15.921549
33.296974 55.975864 0.46230164
32.523197 55.894306 16.31821
32.561127 57.14854 -1.358083
32.761246 56.56201 10.439706
32.613827 56.53907 16.620247
32.405964 57.58246 -1.3837792
32.862 57.00218 9.746608
32.753674 57.507866 12.477492
32.42207 57.871506 16.403883
32.771698 57.451958 16.587734
32.562714 58.6212 -1.765904
32.305283 58.169662 13.171254
32.662834 58.452873 16.33283
32.984745 59.30144 -1.785892
32.771088 59.30245 12.716335
32.666992 59.04286 15.876525
32.52476 60.201164 -1.0978692
32.56956 60.4502 14.588549
32.75951 60.751358 -0.16449925
32.669174 61.005295 0.67767984
32.557194 61.177036 1.5590897
32.63296 61.612995 15.479937
33.019043 61.242805 15.748741
32.56041 62.372173 10.843207
32.48605 62.582405 12.831166
32.55291 62.629463 13.244313
32.48026 62.587833 14.70475
32.750908 62.44121 15.33582
33.10054 62.32632 15.767261
32.16348 63.133408 4.266699
32.12349 63.43033 4.617387
32.88076 62.920837 11.567239
32.71693 62.837204 12.531186
32.838257 62.996758 13.809393
32.815365 62.963875 14.567964
[...]
POINT_DATA 7816
SCALARS features_00 float 1
LOOKUP_TABLE default
0.6744418 0.67665815 0.64553034 0.6519449 0.6584821 0.6305231 0.5846798 0.6046834 0.57342285 0.54806674 0.6737516 0.6669527 0.63598955 0.627842 0.67392904 0.68031675 0.63988876 0.5645964 0.6022744 0.623662 0.52858686 0.38447407 0.3041549 0.5136661 0.49345362 0.49809062 0.4766836 0.3785888 0.32303935 0.3891449 0.39864767 0.40975872 0.4107986 0.35810775 0.31326115 0.336778 0.34557068 0.35803878 0.58032054 0.5693891 0.632071 0.63517946 0.6302026 0.57429236 0.5505589 0.57446164 0.61180305 0.61983347 0.47351837 0.17790332 0.5765042 0.70324886 0.7169596 0.67973775 0.5182829 0.25074393 0.7420608 0.76089776 0.7244868 0.4146517 0.26993608 0.20017871 0.71058726 0.73257315 0.6949457 0.24594574 0.3193199 0.3045647 0.16224024 0.65777063 0.24392328 0.2795632 0.25556022 0.2438896 0.25657654 0.23058146 0.20375924 0.19922727 0.52122486 0.51404893 0.47100526 0.61848545 0.5976654 0.57050765 0.57638013 0.5640981 0.53424764 0.62887156 0.615594 0.6085513 0.6011901 0.63161796 0.28516805 0.5213404 0.5265367 0.44126946 0.1268655 0.25125182 0.33806717 0.37305713 0.4064107 0.46367028 0.52843606 0.4126913 0.09717024 0.05154915 0.11055735 0.48987368 0.5236278 0.5129123 0.12888953 0.011527017 0.442128 0.5853136 0.5338541 0.40248293 0.12561844 0.5285875 0.6606139 0.58070934 0.3739054 0.31919813 0.14029527 0.1165835 0.6339317 0.66684955 0.64036447 0.44531423 0.3960547 0.30576402 0.069958284 0.596524 0.6227907 0.61799014 0.61060584 0.46403128 0.43566674 0.3325962 0.264201 0.12056675 0.033191975 0.5751276 0.5861329 0.4519192 0.371977 0.24939564 0.18056051 0.13582247 0.30807573 0.20758499 0.35749105 0.40665495 0.61818147 0.49612057 0.654682 0.6530225 0.63998026 0.6172316 0.6041605 0.5638832 0.65864307 0.65950644 0.64062047 0.6268675 0.612529 0.601306 0.3903576 0.4504553 0.4187038 0.3640141 0.40178043 0.47455603 0.486666 0.43025392 0.34321934 0.4155683 0.43960208 0.42582798 0.31976384 0.19206494 0.32633844 0.33355787 0.20957783 0.23835985 -0.022213623 0.10794764 0.22388113 0.27245292 0.24897914 0.39156413 0.4156595 0.160556 0.09848462 0.015057601 0.11035875 0.3251284 0.3015705 0.40735883 -0.09718435 -0.018671691 0.33857036 0.3461203 -0.042423084 0.05569356 0.42688 0.25861797 0.13364527 0.025752738 0.5211185 0.45465982 0.5739242 0.5140393 0.029800283 0.46439275 0.5687227 0.5221922 0.459742 0.48621434 0.52788633 0.5566316 0.52649796 0.4695283 0.061459497 0.015723169 0.21706145 0.35081625 0.48654136 0.4379524 0.37192583 0.23347701 0.09158878 0.16534893 0.31688347 0.41987288 0.47557327 0.51046616 0.5510314 0.3748123 0.3751364 0.48754883 0.526527 0.5529909 0.57357347 0.6143788 0.542225 0.35088414 0.64203626 0.6524079 0.6049649 0.56072223 0.5989141 0.57658696 0.6367843 0.6374692 0.60623646 0.6547213 0.6618502 0.64530146 0.62707406 0.5809658 0.50068474 0.6592539 0.6815487 0.6641114 0.61287206 0.51789117 0.4787703 0.2321437 0.6498165 0.6985434 0.6193124 0.5559901 0.46644998 0.34450144 0.2188498 0.27074015 0.25099444 0.5772284 0.47146204 0.29999328 0.24480629 0.21714878 0.1348066 0.2526989 0.2645217 0.135503 0.18442297 0.2006363 0.2291899 0.23700142 0.060040794 0.18684417 0.7032384 0.6578482 -0.07512631 0.21482736 0.6959814 0.65476865 -0.06008315 -0.10996072 0.17020845 0.18505846 0.18211395 0.21838854 0.2358701 -0.008734122 0.3093499 0.3806406 -0.20985527 0.35602707 0.46264285 -0.109858155 -0.1400358 0.45128292 0.38296783 0.5709574 0.119924344 0.39568058 0.5910638 -0.2039272 0.3789212 0.58065677 0.30755356 0.49242753 0.4213725 0.37651816 0.5448499 0.48444226 0.16431934 0.42131144 0.45554608 0.55931187 0.6010044 0.6037886 0.54640424 0.58108455 0.26715794 0.3820051 0.49284673 0.56148684 0.60583746 0.58362997 0.56281865 0.4539763 0.41754657 0.39920524 0.42265958 0.40766934 0.58968616 0.6091671 0.6029597 0.5898833 0.5217446 0.6085619 0.6294353 0.6295939 0.4760056 0.2689678 0.8510339 0.5872752 0.6236677 0.2001397 0.12772194 0.6938066 0.73791635 0.84475565 0.5612314 0.5887414 0.1595297 0.16760713 0.21723467 0.6406969 0.70222306 0.79025805 0.35557234 0.32337594 0.22893733 0.28160065 0.28608042 0.61309373 0.25208107 -0.012653522 0.28118503 0.22776735 -0.03486877 0.18818581 0.7016905 0.7067095 0.6641053 -0.11671691 0.1531527 0.7173253 0.7195357 0.6807269 0.5567751 0.3072196 0.27711788 0.29487005 0.27102482 -0.19117856 0.019232893 0.7006488 0.6908387 0.4060737 0.26672748 0.23953104 0.27954283 0.17737582 -0.39208475 -0.3125152 0.03198053 0.636256 0.60597056 0.57119256 0.2716555 0.24373011 0.23800924 0.13449924 0.054992303 -0.40948185 -0.19428591 0.15145667 0.16347541 -0.008751452 0.1593058 0.24108437 0.16788884 0.26948082 0.41258705 -0.628438 0.21623257 0.48940694 -0.24499652 -0.4689861 0.5460838 0.104731604 0.58877075 0.46178842 0.33557886 0.23198983 0.084659085 -0.035958953 -0.1703089 0.49821466 0.33159128 0.58225465 0.4536853 0.14944503 0.14957908 0.2870197 0.3914496 0.53279746 0.5944505 0.5921537 0.4379437 0.34942022 0.3073093 0.2874934 0.2253763 0.3548274 0.4682243 0.37790573 0.35041562 0.51709855 0.49988475 0.5455603 0.53301615 0.5514457 0.5066252 0.45927882 0.33808017 0.7345927 0.854543 0.9440607 0.5067101 0.49757227 0.29741782 0.21513127 0.6181126 0.68826795 0.80696493 0.94017893 0.96318746 0.52274585 0.15406126 0.12506309 0.6144242 0.6839663 0.78744996 0.8840289 0.91598344 0.92266554 0.53526115 0.065054536 0.1491054 0.24093594 0.5999139 0.61083615 0.7072984 0.8018677 0.86202276 0.39348823 0.27615404 0.55209947 0.5686556 0.6521485 0.6970664 0.8116217 0.3012959 0.289126 0.14074142 0.25869682 0.46458292 0.5751006 0.5965291 0.61100525 0.5230429 -0.22081181 0.16052175 0.33540925 0.4232806 0.5073978 0.38177514 0.64436036 0.63372564 0.6434298 0.48000973 0.2793955 0.29497185 0.2621993 0.11904655 0.058015507 0.4083466 0.5165224 0.4938288 0.6306859 0.6819166 0.2881712 0.12011957 -0.39151004 0.00026397407 -0.09251079 0.4720757 0.56669176 0.5334973 0.42119318 0.6287321 0.6727488 -0.07774436 -0.4448079 -0.41789055 0.4792487 0.5126027 0.47927958 0.5718929 0.5137986 0.38605177 -0.03099456 0.4801481 0.48174995 0.396909 0.13245228 -0.052060973 0.13269892 0.08108977 0.17042084 0.22418067 0.07361142 0.39291853 0.105825074 0.59749776 0.46469074 0.6599938 0.45110655 0.30222195 0.041594706 0.2383959 0.12838702 -0.099549234 -0.0066920966 0.48440582 0.120529376 0.52693504 0.25259647 0.24593148 0.21151525 0.17639752 0.09780713 0.16517594 0.44174367 0.39491838 0.40472177 0.402987 0.41891837 0.41662616 0.4098309 0.35950786 0.2897491 0.6704328 0.8399486 0.94844717 0.94871706 0.3262752 0.35442603 0.26100096 0.15136063 0.45772588 0.5531563 0.61121726 0.94425714 0.9157357 0.41525897 0.44591767 0.08503686 0.07156188 0.15736096 0.52799666 0.93083394 0.9015016 0.41803277 0.39872473 0.10778567 0.16729248 0.18864773 0.34582806 0.5060071 0.8421829 0.87328136 0.35641384 0.33774376 0.16149473 0.46445262 0.67672026 0.78249305 0.22104536 0.19618967 0.14759982 0.21565162 0.16594246 0.06701539 0.13990124 0.42898536 0.43216732 0.60171145 0.49167943 0.49493837 0.4781059 0.4613668 0.0012006573 0.08288963 0.26248282 0.2445317 0.21145312 0.1993809 0.23721159 0.2908638 0.09149039 0.5159626 0.5188968 0.1632055 0.2566802 0.1834393 -0.29164284 -0.017430052 0.11909534 0.1793882 0.22015443 0.20566376 0.23482548 0.17853136 0.082600325 0.5541756 0.59848607 -0.41585594 -0.28636092 -0.108570345 0.028255463 0.106458314 0.0949199 0.16961868 0.3208063 0.21063493 0.5856402 -0.32148504 -0.37034613 -0.05065116 -0.055270344 0.10103253 0.38795185 0.2630543 0.55095506 0.5203791 -0.2634823 -0.18576373 -0.071310446 -0.065508746 0.37219018 0.28024918 0.41736013 0.37163725 -0.07684468 0.1903359 0.058915894 0.03974675 0.31973442 0.4149385 0.4560341 0.05253552 -0.052967787 0.20547578 0.38358566 0.51950806 0.57376766 -0.08989938 0.55742514 0.6311017 0.6571113 0.3164734 0.16063277 -0.09396875 0.54017615 0.6243558 0.6639704 0.6362177 0.5810534 0.2524811 0.13930377 0.15201117 -0.0423738 -0.08874452 0.6022051 0.62759435 0.6080414 0.08099428 -0.017513145 -0.30255902 -0.028779402 0.03322521 0.27155906 0.038004145 0.31543735 0.2191194 0.14812788 0.16334227 0.10414891 0.09385578 0.013492743 0.027052063 0.21098357 0.35312742 0.34717345 0.31526762 0.33855936 0.33009708 0.29018015 0.66314495 0.76183724 0.8764348 0.85911965 0.43943116 0.29330236 0.2255354 0.18744195 0.14338812 0.15660958 0.15973596 0.17562388 0.41432965 0.47924548 0.85001916 0.8706793 0.4999165 0.43295616 0.08638824 0.13233419 0.15770811 0.19187875 0.19969386 0.29397032 0.3794871 0.85125947 0.44320047 0.17157036 0.18894902 0.18466035 0.24390292 0.8030263 0.8233485 0.10367233 -0.027416807 -0.031515304 0.56920135 0.65763783 0.019172352 0.11778994 0.1518239 0.047487658 0.31639886 0.4224537 0.40961403 0.3944149 0.20858161 0.02022123 0.44826514 0.469877 0.054581825 0.20473972 0.34210545 0.50310254 -0.09802266 0.594478 0.5349134 -0.31176051 -0.097363785 0.17639534 0.1859802 0.23700231 0.29399133 0.6259049 0.6542342 0.5234013 -0.225434 -0.13295299 -0.07445938 -0.048613574 0.23151071 0.105343185 0.124470234 0.18413414 0.33158442 0.44041532 -0.058359373 -0.028399128 0.28039652 0.36590573 0.08198122 -0.052465163 0.378788 0.4548248 0.09066594 -0.0877902 -0.09982983 0.50686014 0.47066447 -0.05533117 0.061611317 -0.31239402 -0.13296211 0.28044516 0.5476761 -0.011371896 -0.17334215 -0.21090008 -0.0781647 0.5723358 0.5354566 -0.15647966 -0.13941254 0.15064241 0.3689002 0.57330513 0.5544838 0.52542603 -0.112654015 0.109182954 -0.093027115 -0.01491487 0.15607265 0.2978179 0.46948862 0.5397693 0.510362 0.19949064 0.14786771 -0.062615134 0.18911892 0.17006123 0.08520508 -0.11424306 -0.005518399 0.06294518 -0.05700871 -0.050978135 -0.021176334 0.20848912 0.31643355 0.2944172 0.32642722 0.38546216 0.36956802 0.33480063 0.33769512 0.2792464 0.30601463 0.32520044 0.28065246 0.19117913 0.22025451 0.6943687 0.7667451 0.5596837 0.5232142 0.40857887 0.238833 0.19575675 0.14471868 0.12759954 0.15645911 0.17994037 0.16848834 0.26006347 0.32452857 0.40823472 0.5492766 0.62953913 0.764698 0.5184851 0.53011435 0.15016432 0.18947555 0.19393693 0.16930225 0.042442366 0.098322295 0.17467949 0.78164876 0.81374073 0.41835788 0.47100395 -0.0025896598 -0.10837343 -0.04696289 0.7545585 0.39261088 -0.07398551 -0.102353424 0.603501 0.13737826 0.40841907 0.38800895 -0.14322454 -0.13134505 0.05163978 0.18030174 0.43165058 0.4152136 0.5959049 0.66481113 0.7052098 0.4470796 0.69860566 0.7147821 0.34125453 0.08070063 0.37553352 0.57717615 0.6818066 0.33480993 -0.023958474 0.060208328 0.106262065 0.2670117 0.34843636 0.28566104 0.11942103 0.055522263 -0.009253457 0.40089172 0.35380343 -0.08229575 -0.15566704 0.461434 -0.17942229 -0.1305339 -0.18213212 -0.028567206 0.19142263 0.4948159 0.45020396 -0.10179405 -0.059788294 0.10712139 0.1545664 0.19749948 0.36656523 0.44884557 0.44606075 0.090532556 0.010900736 0.13626996 0.2885096 0.32378668 0.3049873 0.17515187 0.14412732 0.07043321 0.07498405 0.3071922 0.35856304 0.3558861 0.14984071 0.07969526 0.0070613287 -0.017823085 -0.1550408 -0.10079234 0.28690195 -0.0694184 -0.037991848 0.32522538 0.38594386 0.44561267 0.43554932 0.37786698 0.43971023 0.47911847 0.496773 0.4649024 0.27687436 0.26952064 0.27398172 0.20308918 0.23653246 0.24393514 0.18299553 0.2507201 0.23312989 0.5020108 0.5817697 0.5694061 0.4442119 0.22054653 0.2034472 0.21447173 0.24213077 0.21939671 0.123473816 0.1312117 0.13810727 0.1470727 0.14793453 0.07119061 0.30118793 0.3693181 0.43966323 0.5215462 0.63653564 0.5261129 0.5523718 0.065152764 -0.06574133 -0.13248494 -0.12444595 0.3559885 0.6391475 0.4818425 -0.17544118 -0.21045645 -0.08464205 0.38572714 -0.06312181 0.19540118 -0.0251185 0.33097094 0.17112717 0.042249814 0.39842442 0.59837055 0.64625084 0.29053548 0.69520617 0.22972487 0.71508723 0.68327534 0.7163342 0.26885107 -0.0075397803 0.6058982 0.46201122 -0.04563894 0.0011522658 0.4981565 0.3406424 0.07796763 0.4826822 0.4099664 0.12018534 0.16286159 0.37007216 0.22066012 -0.00070317835 -0.03939361 0.3532127 0.34561306 0.5061436 0.2779419 -0.10093147 0.4069881 0.5721837 0.4920431 0.29706216 -0.13905494 0.2725677 0.33356827 0.3678229 0.5635822 0.53395855 0.43782842 0.002246527 0.29950893 0.24107617 0.29235247 0.13645026 0.29230005 0.3792728 0.36271015 0.13289471 0.030529428 -0.07588779 0.040463198 0.055333503 0.051559497 -0.12612201 0.258069 0.43729907 0.3887983 0.43902618 0.4952115 0.50896966 0.49446267 0.4964435 0.5002304 0.37754756 0.35858902 0.31940645 0.356856 0.322357 0.2984512 0.2550118 0.24180958 0.22542194 0.16797844 0.27024704 0.28482795 0.23746398 0.12989348 0.11899768 0.18215017 0.18819027 0.56364363 0.51963186 0.3867067 0.30536282 0.22307366 0.25821015 0.25797212 0.22610392 0.2065643 0.20729873 0.20315689 0.20894855 0.12588276 0.054071125 0.041041967 0.11565279 0.14213303 0.17157161 0.19408739 0.3253272 0.2534113 0.51454437 0.5105922 0.48926437 -0.068574905 -0.06208594 -0.13517849 0.07434042 0.22231805 0.49172056 0.43781596 0.29109758 0.107976034 0.173634 0.039586976 0.16270655 0.58488125 0.6136776 -0.046874136 0.65395665 0.69553477 0.06758268 0.59288585 0.70439684 0.28265256 0.522289 0.4356284 0.19637588 0.39552388 0.5899858 0.1195838 0.3025866 0.6000097 0.5621861 0.06888315 0.30403683 0.45569378 0.3448974 0.015438978 0.13675268 0.2753689 0.31282043 0.28773367 0.5676217 0.5946492 -0.09081465 0.28559586 0.33159018 0.60695875 0.6062232 0.5052743 0.26597846 -0.08931378 -0.039392 0.23355106 0.22915825 0.5990541 0.52680445 0.43564308 0.03668307 0.045189142 0.074741356 0.08054763 0.24401282 0.35605532 0.35346544 0.00821996 0.034066904 0.08919249 0.078398176 0.091304936 0.12703167 0.09290694 0.07745795 0.1070086 0.35003653 0.34345558 0.123290405 0.13671118 0.13586405 0.13102435 0.3553825 0.45680463 0.42448097 0.45420402 0.47144735 0.407892 0.38106126 0.3755709 0.4095539 0.3905725 0.33097488 0.29070875 0.2438587 0.176411 0.1570926 0.16921708 0.1397023 0.1596364 0.1857605 0.16325612 0.14019229 0.25932997 0.271513 0.2831022 0.29729417 0.2753498 0.1255683 0.09754453 0.03290829 0.0155504495 -0.022747852 0.014401197 0.46054232 0.3834189 0.33834213 0.27183214 0.18954735 0.111875735 0.018395752 0.030983865 -0.04456784 0.35329267 0.296029 0.06076935 -0.087586746 -0.09128882 0.15517895 -0.19366318 -0.49018952 -0.093558274 0.047184452 0.17639814 -0.49724847 0.17603667 0.094518974 -0.008059561 0.14464219 0.13979879 0.119071215 0.05522881 0.4831478 0.61026406 0.04624287 -0.080070406 0.64505076 -0.07607174 0.42255548 0.35872778 0.5108399 0.39444566 0.39284042 0.5695971 0.44781858 0.4536308 0.5783176 0.26736546 0.37104604 0.46869767 0.47692066 0.54316616 0.47085476 0.21099384 0.07877094 0.25029075 0.3901887 0.45748016 0.17688131 0.2887452 0.27847603 0.26587465 0.37073582 0.448905 0.5872921 0.34634203 0.13548826 -0.032433297 0.22509536 0.23260038 0.62852794 0.6182636 0.51621366 0.32954323 0.19322495 0.15228903 0.29194057 0.2543417 -0.031813987 -0.03376732 -0.03372571 0.031028977 0.26046562 0.2588719 0.08610441 0.12666716 0.14198348 0.14705174 0.14693373 0.13881126 0.13161592 0.097526774 0.32070515 0.34164178 0.13373272 0.1418889 0.13965851 0.08201546 0.3006542 0.25554338 0.3284409 0.38081414 0.40629977 0.38971087 0.31574917 0.30518043 0.39872676 0.30602044 0.2646816 0.10467574 0.09186403 0.07848847 0.12027112 0.21382841 0.22162712 0.09852308 0.21882507 0.16637346 0.25281793 0.26868013 -0.08306907 -0.09113758 -0.20519997 0.066831164 0.2469328 0.2604823 0.29716045 0.3131291 -0.09459895 0.05293777 0.11127727 0.15100831 0.15523581 0.055197842 -0.25855792 0.022213288 0.044481322 0.030766848 -0.09211989 -0.6754884 0.20385338 0.438209 0.42274007 0.22895867 0.06721592 0.13264045 0.010547772 -0.0809067 0.16088751 0.20707357 0.2406158 0.18034527 0.18095912 -0.0176225 0.1853845 0.14718087 0.1269986 0.065732986 0.18255132 0.27977613 0.45481655 0.37093776 0.51839054 0.43799108 0.51370984 0.42013717 0.48396397 0.36141455 0.26908314 0.27315828 0.42144096 0.47351265 0.48018062 0.07717882 0.13477744 0.20840867 0.3169582 0.3761612 0.3201995 0.34014565 0.17853273 0.3381963 0.45066428 0.049047478 0.10265921 0.17568289 0.5601957 0.5800111 0.47507268 0.15367946 0.031331494 0.07900585 -0.099590346 -0.07362163 -0.023507252 0.18922772 -0.024338648 0.119674325 0.08824098 0.2557149 0.16625147 0.19984864 0.12755252 0.11931308 0.122823074 0.11679651 0.08315785 -0.004347164 0.15142395 0.06488143 0.35242414 0.28867856 0.26911756 0.32252532 0.37916863 0.29283983 0.1920591 0.23930615 0.24245727 0.07812745 0.12067781 0.20147969 0.13394581 0.1833583 0.20860033 0.18422875 -0.16456307 0.17359187 0.18853909 0.13894878 0.0358899 -0.0803792 -0.18647832 0.16322978 0.2700516 0.12753472 0.11973283 0.17979568 0.16857532 0.527306 0.5768907 0.17544225 0.1814806 0.08982661 0.2735415 0.36877835 0.48329532 0.44480592 0.029104833 -0.007857218 -0.17668438 0.30274105 0.28677598 0.37657344 0.36942485 0.12624006 0.04892446 -0.059193686 -0.097457215 -0.22863412 -0.24826741 -0.39746052 -0.5332631 0.27276653 0.26940912 0.21611065 -0.06298319 -0.043024108 -0.18363327 -0.170945 -0.28845608 0.20214424 0.2003108 0.1485289 0.18486744 0.15705612 0.08959304 0.031513795 0.10417996 0.35370386 0.28669754 0.34404138 0.32938996 0.32381707 0.3453411 0.44789585 0.35303172 0.44646722 0.33593845 0.049649984 0.3856393 0.42169583 0.4488084 0.0011888444 0.18402672 -0.45638448 -0.20809895 0.05740149 0.1939795 0.2974254 0.36033857 0.2755618 0.23849419 0.023824604 0.3488609 0.39401823 -0.26909894 -0.30224168 0.45927435 0.4531257 0.272717 -0.0884976 -0.22354418 0.44393808 0.05486326 -0.028662153 0.023224574 0.038755834 0.02683679 0.010790529 0.17748354 0.14323482 0.18449631 0.06359643 0.12947825 0.2716424 0.2895759 0.2753822 0.09526808 0.03711128 0.004537232 0.034411035 0.06845227 0.17702511 0.16610795 0.29428002 0.2985224 0.29438236 0.27872476 0.20363703 0.14172915 0.23757775 0.26576036 0.26474008 0.16697575 0.12459116 0.61876565 0.17858034 0.2698713 0.14938313 0.07282411 0.12586573 0.08236484 0.10496564 0.50324786 0.1511584 0.16352971 0.108514056 0.47991747 0.4653815 0.069811374 0.16581835 0.1475612 0.24103998 0.23267552 0.13925076 0.20335971 0.23425895 0.20819998 0.21487746 0.5228201 0.105603024 0.23434106 0.29047355 0.47124475 0.5402657 0.54366386 0.027133487 0.27739048 0.34274334 0.34668553 0.31312314 8.754432e-05 -0.19779259 -0.3467946 -0.03837845 0.33407816 0.21956868 0.27335912 0.29502988 0.22005513 -0.3254241 -0.28944528 -0.42243844 0.26465765 0.07850088 -0.30855775 -0.34396377 0.21913627 0.14897491 -0.013816316 0.16028331 0.15004328 0.103982754 0.051615268 0.16237715 0.021526292 0.060715273 0.39474207 -0.18627018 -0.1219439 0.18975079 0.42342335 0.48477095 0.22390941 0.20499548 0.420318 0.16518259 -0.02138967 0.30817166 0.31804413 -0.18249345 -0.027583852 -0.16034679 -0.20027341 0.012890812 0.1670987 0.26626527 0.30151623 0.15794785 -0.19438799 -0.090763375 -0.09967014 0.21177125 -0.25529534 -0.11228655 0.34959307 0.3840577 0.057553582 -0.17614871 -0.093322024 0.087718226 0.017351411 -0.09916962 -0.114409745 0.09903669 -0.03611146 0.17117764 0.1940996 0.09536509 0.14914404 0.14830485 0.17583765 0.1948258 0.2054319 0.08505565 -0.08699943 -0.014978528 0.05813689 0.09502299 0.2909479 0.30972332 0.2750174 0.28902522 0.30328748 0.2350322 0.17794915 0.104480304 0.049927562 -0.0024854988 0.10241524 0.16521557 0.263884 0.36107904 0.2603633 0.28704417 0.25524467 0.19732305 0.6711342 -0.016289115 0.05966881 0.15205413 0.22083887 0.23632064 0.23908205 0.24746394 0.6581788 0.6779403 0.67563957 0.646955 0.04644963 0.097625464 0.1953785 0.19421074 0.16895598 0.62102056 0.6549528 0.66408587 0.6355276 0.5543196 -0.005913891 0.08626114 0.56269693 0.5647666 0.542019 0.5446998 0.49705315 0.45894572 0.030262496 0.19162528 0.42939746 0.46524405 0.41719943 0.45547742 0.43667805 0.41295224 -0.10226873 -0.017051594 0.04374346 0.6449301 0.6265766 0.5045902 0.2751389 0.3651139 0.37519014 0.3778182 0.34347975 0.34634626 0.21032159 0.23113777 0.19216527 0.1290264 0.16922107 0.19430727 0.6561978 0.62764394 0.53201187 0.22347188 0.288366 0.3275232 0.44039577 0.5055583 0.4976586 0.2193697 0.21453196 0.22123535 0.64346147 0.6005095 0.49597096 0.23703