# vtk DataFile Version 2.0
Really cool data
ASCII
DATASET POLYDATA
POINTS 2736 float
24.363523 21.997772 -1.0097837
24.353138 22.027735 -0.7015825
24.3525 22.902252 -1.9277537
24.164589 22.667383 -1.3578943
24.110935 22.642021 -0.51263905
24.277922 22.693018 -0.04067549
24.309885 23.371895 -1.8846375
24.05973 23.576643 -1.353002
24.020555 23.610664 -0.5040355
24.268414 23.525969 0.035574734
24.34273 23.882471 -1.843172
24.13044 24.009977 -1.2690933
24.158323 23.973372 -0.35237986
24.240797 24.04765 -0.13126868
24.31506 32.03884 -4.1542463
24.271917 32.023453 -3.659659
24.345455 32.190838 -3.0429718
24.345259 32.656567 -4.7733307
24.197561 32.63825 -4.3561044
24.066887 32.80818 -3.5322676
24.308704 32.660854 -2.9501364
24.320412 33.45106 -4.8653784
24.09271 33.472427 -4.38485
24.008745 33.402264 -3.7948723
24.226156 33.345467 -3.0321734
24.376299 34.528297 -4.9831176
24.304577 34.468746 -4.455567
24.25442 34.050224 -3.5878747
24.292223 33.85429 -3.1382127
24.456446 35.01237 -4.956693
24.410023 35.054306 -4.6372633
25.090942 21.4606 -0.9864452
24.987478 21.451675 -0.8268895
24.93118 22.120056 -2.003533
24.73138 21.843977 -1.3446083
24.711138 21.737383 -0.5735719
24.84701 21.950314 0.05812612
25.159946 22.886148 -2.555463
24.760658 22.612122 -2.1723936
24.415943 22.40525 -1.7416548
24.595194 22.49342 0.22708353
25.184193 22.810415 0.8382751
24.763247 23.493582 -2.2611618
24.625626 23.500973 0.39478922
25.084404 23.498846 0.8875085
24.794798 24.593834 -1.7686816
24.470324 24.42452 -1.3444345
24.410126 24.565033 -0.4406996
24.64108 24.2011 0.20548087
24.87792 25.08039 -1.0527644
25.066671 25.344107 -0.57122475
25.160416 30.94249 -4.140836
25.177742 30.860134 -3.4240208
25.214275 30.959066 -2.940031
24.774918 32.071476 -4.8566604
24.657455 31.781738 -4.3407497
24.573036 31.778952 -3.3968055
24.634666 31.931845 -2.8636217
24.601862 32.710506 -5.0125318
24.474758 32.357098 -4.579002
24.448128 32.47635 -2.8170285
24.899233 32.5681 -2.3344302
25.19047 33.57645 -5.8944664
24.521889 33.40077 -5.0998516
24.511833 33.51371 -2.6772244
24.937012 33.283127 -2.2163532
25.000956 34.65205 -5.8607106
24.588612 34.38891 -5.3977203
24.436665 34.372166 -3.417961
24.559277 33.94867 -2.8379238
25.106215 33.853214 -2.2427888
25.125757 35.177578 -5.8324857
24.731792 35.348667 -5.307053
24.645529 35.500427 -4.513886
24.788612 35.35087 -3.901525
24.99942 35.855644 -5.1573715
24.950422 35.9054 -4.578259
25.431784 21.45728 -1.0859361
25.450474 21.422539 -0.6258602
25.50164 22.003342 -2.0864015
25.3414 21.591856 -1.3976068
25.520456 21.52686 -0.2458518
25.409887 21.731716 0.12705874
25.841448 22.025707 0.6666923
25.593803 22.949095 -2.6439083
25.439312 22.474407 -2.4610186
25.726433 22.676054 0.98938525
25.474747 23.310472 -2.6544435
25.75406 23.410065 1.3716903
25.918224 24.364817 1.3514721
25.922077 25.256332 -2.1260822
25.486969 25.40897 -1.4594343
25.40523 25.715929 0.081836075
26.085884 25.380814 1.1463888
26.22977 25.913313 -1.7833436
25.951675 26.220598 -1.2681339
25.882057 26.314665 -0.56087655
26.199257 26.712992 -1.002431
26.232876 30.337479 -4.6879153
25.619167 30.359938 -3.3374321
25.509855 31.035284 -4.850277
25.708591 30.396538 -4.153395
25.399664 30.545933 -3.4306643
25.626255 30.870863 -2.4634933
25.919306 30.984257 -2.1126163
25.626158 31.987263 -5.7238674
25.419195 31.826553 -5.2982306
25.63183 31.64664 -2.1985197
25.855097 32.65876 -6.224803
25.281378 32.475834 -2.0656435
25.623785 33.779354 -6.282282
25.726908 33.51079 -1.7521656
25.435545 34.448666 -6.2164574
25.496744 34.13839 -2.1119843
25.605787 35.281155 -6.03372
25.708994 35.375813 -3.3691757
25.506433 34.845276 -2.7414176
26.465263 35.898247 1.0473394
26.490793 36.060837 1.1564821
25.396626 35.9263 -5.4538755
25.490496 36.117947 -4.3638897
25.28697 35.95835 -3.99792
26.476292 36.264442 1.5044491
26.190762 21.975983 -1.9488285
26.263971 21.750275 -1.5012219
26.59173 21.64312 -0.2722986
26.411297 22.328817 1.1567854
26.743303 22.981913 -2.3969464
26.65407 22.863554 1.6622212
26.117651 23.278526 -2.6505709
26.557161 23.921644 1.7624272
26.702812 24.647757 -2.4178452
27.013844 24.689777 2.0410652
26.435408 25.25174 -2.2276206
26.554037 25.224764 1.7016923
26.71476 25.994349 -1.925425
27.07958 26.519232 1.6697941
26.950113 26.99429 -1.3056974
27.228624 27.24065 1.348782
27.048779 28.002405 -0.6194988
27.125929 28.028698 0.3941671
27.427984 28.98583 -0.51358855
26.580355 30.490145 -2.0753496
26.377586 31.597708 -1.5822334
27.006443 31.374346 -1.3266946
27.347795 32.353775 -7.941684
27.049963 32.418823 -7.263034
26.504208 32.46495 -6.597127
26.854925 32.778763 -1.2628934
26.258331 33.91004 -6.777961
27.192163 33.733677 0.8516831
27.370138 33.551964 1.85916
27.288408 33.97823 2.0765603
26.806507 34.278763 -1.6714022
27.071495 34.982197 0.6576944
26.958239 34.766163 1.4213284
27.191841 34.673805 2.2500217
26.407585 34.928513 -6.308324
26.604708 35.002132 -2.661828
26.43836 34.761158 -2.1996973
26.822666 35.57516 0.56414723
26.548586 35.806183 1.4830172
26.778532 35.638905 2.3600965
27.129631 35.72331 2.9107053
26.185373 36.040478 -5.6438766
27.306902 36.46958 -3.29647
26.641888 36.377483 0.7200253
26.543331 36.459858 1.5218465
26.711039 36.38678 2.4056797
27.084566 36.403942 2.890801
27.444338 38.100388 -7.880887
27.45324 37.713993 -7.490347
27.198818 37.07969 0.2229604
26.913261 37.069683 0.68339777
26.775673 37.138474 1.624827
27.004309 37.16256 2.2846367
27.179241 36.87931 2.8066857
27.392984 38.808872 -7.9582314
27.3102 38.507538 -7.0255675
27.131605 38.408596 -6.756533
26.928608 38.74096 -5.435544
27.221512 37.73205 1.5626494
27.40307 39.219692 -8.102048
27.29758 39.445995 -7.329976
27.071264 39.479206 -6.3376737
26.974201 39.530376 -5.511157
27.1483 39.65503 -4.961666
27.411888 39.82249 -7.0375676
27.386845 39.804802 -6.7516394
27.201382 39.982105 -5.461016
27.192139 39.865707 -5.021706
26.862064 22.062342 -1.7587587
27.439316 22.022621 -1.1572366
27.146042 22.563662 -1.963614
27.204927 24.432613 -2.5136151
27.285112 25.009693 2.2399423
27.330584 26.082567 -2.1070645
27.71824 26.25606 2.3511648
28.369513 27.850874 -6.3246727
28.19601 28.485315 -6.2525835
27.663883 28.22088 -1.9820107
27.901653 28.381998 1.4758368
27.999437 28.051126 2.235242
28.276466 29.025473 5.4514303
28.114075 28.992476 6.216731
28.048616 29.869818 -7.624995
28.031134 29.656897 -6.4987497
27.58983 29.843145 -5.75688
27.847332 29.658205 -0.4973109
27.539845 28.861616 -0.0075118095
27.985552 29.48694 5.6674275
28.130932 29.520638 6.408597
28.304762 29.549356 6.843411
27.82251 30.869343 -8.023094
27.741867 30.547333 -7.598414
28.159098 30.692703 0.7892734
28.321213 30.231974 1.296324
28.101543 30.145348 5.069338
28.145292 30.330074 5.5897493
28.240105 30.24932 6.472468
28.079325 31.606739 -8.944513
27.76716 31.732302 -8.712731
27.829733 31.09455 -0.21248099
27.869637 31.808058 0.36150306
28.448795 31.091936 2.4526968
28.053919 32.419655 -8.940454
27.798191 32.498604 -8.60651
27.57699 32.852467 1.1892352
28.097776 32.32342 2.3222473
28.303864 32.46277 2.7938259
27.73002 33.632492 -7.5967994
27.458633 33.700027 1.95851
27.839682 33.940655 2.9247503
27.152147 34.277122 -1.8923323
27.992393 34.387108 3.0608015
27.426203 35.687294 3.1206431
28.07192 36.604843 -6.3679814
27.74851 36.20666 -2.6484356
27.544828 36.36144 3.1864176
28.31784 37.88255 -11.027192
28.045584 37.729153 -8.997913
27.696264 37.82473 -8.086269
27.564518 37.897 -7.6234746
27.731714 37.07696 -3.5835931
27.579891 37.21608 0.20207149
27.288542 37.39796 2.562218
27.557415 37.20995 2.8365397
28.062244 38.897602 -11.207263
27.838432 38.394417 -10.207885
27.658632 38.593407 -8.973082
27.484478 38.64625 -8.474206
27.870821 38.297966 -3.9804015
27.718948 37.72534 0.6381806
27.557901 37.936543 1.6901163
27.677742 37.874554 2.1430936
28.344687 39.86186 -15.195597
28.178009 39.751034 -14.48709
28.335209 39.646236 -13.018447
28.382341 39.58114 -12.277697
28.081125 39.75404 -11.103437
27.861057 39.12221 -10.347326
27.847218 39.37351 -9.547035
27.67497 39.742832 -8.182272
27.564766 39.728123 -7.8926754
27.545189 39.692745 -4.4810495
27.736334 39.337906 -4.264541
28.27963 40.599453 -15.209418
28.02493 40.440926 -14.419327
28.138176 40.77704 -13.729469
28.085464 40.304432 -11.401735
28.278072 40.278107 -9.794044
28.211538 40.363407 -8.022448
27.647583 40.02726 -7.5073485
27.521662 40.23299 -6.2981834
27.55407 40.38788 -5.6422234
27.677933 40.200058 -4.8607984
28.180454 40.99139 -14.894394
28.170782 41.10257 -14.738887
28.234879 41.24117 -13.159992
28.26648 40.921543 -11.514389
28.135044 40.704636 -6.5116835
28.038158 40.729797 -5.863972
28.145098 40.60331 -5.0664873
28.422096 41.928844 -14.263054
28.774471 20.813288 1.4727128
28.81714 20.819597 2.1969492
28.982168 21.122393 2.9893804
29.078354 21.667871 3.6195927
29.259674 21.99604 4.2259803
28.388292 22.81242 -1.1380992
29.335314 22.391476 4.4165807
28.97137 23.680151 3.149
29.37959 23.562452 4.165638
29.427328 24.467001 3.3426545
29.38441 26.147943 -7.410006
29.176605 25.991678 -6.5361443
29.141277 25.7956 -5.5360765
29.207771 25.627394 -4.839649
28.84211 25.86044 2.7952557
29.071661 26.748363 -6.9838142
28.867794 26.50524 -6.342939
28.715042 26.530382 -5.501905
28.837196 26.378506 -4.8943934
28.749228 26.672678 -3.768534
28.79575 26.822561 3.105975
29.223866 27.053562 5.8567924
29.32007 27.050592 6.3916984
29.380276 26.993427 -7.8583636
29.177763 27.44075 -7.4646773
28.497986 27.293943 -5.9162464
28.969616 27.833893 4.6686554
28.89594 27.96343 5.1827235
29.176994 27.566195 6.6746597
29.214954 27.511906 6.8335843
28.503134 29.135294 -7.197047
28.496038 28.215248 -6.681725
28.772404 28.883547 3.622119
28.493666 28.671303 6.504662
28.766918 28.860521 7.155998
28.519697 30.035791 -8.087918
28.659157 29.83773 3.6687455
28.659727 29.614756 7.24118
29.139406 29.781242 7.774372
28.56491 30.8991 -8.90165
28.296928 30.710316 -8.513364
28.776983 30.360289 3.6947734
28.480087 30.29548 4.4348445
28.658833 30.532047 6.9368815
29.056541 31.704344 -9.57427
28.603355 31.846754 -9.389722
29.022848 31.478947 4.7728276
[...]
POINT_DATA 2736
SCALARS features_00 float 1
LOOKUP_TABLE default
0.880659 0.8806981 0.88267696 0.91834754 0.92355037 0.87141025 0.87069947 0.87467015 0.8473042 0.8035643 0.8183458 0.8106472 0.7895553 0.7636356 0.5844169 0.605583 0.60851824 0.5650573 0.6108459 0.65331304 0.6262954 0.598048 0.64399695 0.66407686 0.64073 0.6315414 0.65308905 0.6616702 0.6434413 0.64796925 0.6565392 0.8361064 0.8389456 0.8529506 0.8621468 0.8487803 0.822842 0.8291699 0.86176515 0.8840636 0.8282144 0.688813 0.82117355 0.7348635 0.6250285 0.6616926 0.7232995 0.7092217 0.67906594 0.6011139 0.56354487 0.50423247 0.5208931 0.5132593 0.50588006 0.54348695 0.58246154 0.5727251 0.52386427 0.56221324 0.60685134 0.55362236 0.46785417 0.55933386 0.6115029 0.5656292 0.5722717 0.5952105 0.64918214 0.6139622 0.55157626 0.6002569 0.6421969 0.66389954 0.64873505 0.6607294 0.66944283 0.8133185 0.80562735 0.8220578 0.82443416 0.7989187 0.7998231 0.7253662 0.79745257 0.82056004 0.63043666 0.77869177 0.50256044 0.4042388 0.47932425 0.4887283 0.5221276 0.36797482 0.3910681 0.38018757 0.36444348 0.30879065 0.37509224 0.48139852 0.444487 0.46129113 0.5017558 0.46355844 0.40973628 0.37747598 0.42473853 0.45000118 0.3158403 0.50495523 0.41934115 0.48142695 0.5126487 0.4974199 0.57383955 0.47066206 0.49020916 0.60308385 0.6299529 0.6463258 0.6361265 0.6129786 0.66331255 0.7803389 0.77225983 0.7421175 0.57077557 0.7039601 0.43061346 0.7422095 0.3504039 0.5274702 0.22523256 0.44242516 0.25573218 0.35480902 0.19650477 0.23849174 0.17501009 0.097307794 0.10754914 -0.012411311 0.2690286 0.31258643 0.124263555 0.28077865 0.20701265 0.20454754 0.32165027 0.30770993 0.2515296 0.2881907 0.3667665 0.33450264 0.4264481 0.45586586 0.47349763 0.45367163 0.2653243 0.33328825 0.5175977 0.5946581 0.6059929 0.6249168 0.57859623 0.037768323 0.65655833 0.6893312 0.69687814 0.6905261 0.2842867 0.25595418 0.63638675 0.71057105 0.73885626 0.7295662 0.7079821 0.3134082 0.35650125 0.37215915 0.50522447 0.72259974 0.31686285 0.3828228 0.47271496 0.5188381 0.5179765 0.42129108 0.44866815 0.5267272 0.5232579 0.7130266 0.6049867 0.63939804 0.5265317 0.15792195 0.30078685 0.13187778 0.15996812 0.06639255 -0.020102028 0.039099477 0.051764183 0.4294208 0.44358665 0.124998935 0.030745 0.013112836 -0.18739833 -0.0054002106 0.4936959 0.503079 0.48509473 0.28332204 0.20956294 -0.15353951 -0.16191916 0.48568177 0.53400314 0.53676474 0.3483816 0.33919215 -0.27128178 -0.1353822 -0.14278166 0.33226418 0.3221892 0.1340483 0.14825131 0.19828817 0.18839799 0.31341437 0.38029423 0.29162028 0.4284574 0.6009636 0.07423571 -0.10515055 0.64421475 0.24913025 0.21365516 0.24261323 0.2679116 0.020000987 0.5539126 0.7133745 0.6878637 0.22687815 0.23811245 0.26547006 0.2857425 0.228959 0.58532107 0.69633913 0.6982107 0.44890562 0.42615914 0.30299148 0.23015286 0.19727132 0.22549674 0.24146289 0.31810415 0.34163278 0.47806615 0.42265493 0.4434967 0.43425092 0.3706067 0.18632439 0.16942774 0.29598063 0.3761708 0.49518198 0.52313524 0.50472 0.43378645 0.42672592 0.27089646 0.18232718 0.46185538 0.49589306 0.47497553 0.3425282 0.49319413 0.43457645 0.4118411 0.41745836 0.369626 0.23279923 0.30382377 0.09418854 0.15445104 -0.039162975 0.38690197 0.37919974 0.3596529 0.3020897 -0.117987074 0.31568974 0.31627905 0.301406 0.2965311 0.2543292 -0.07381781 0.1833455 0.17523411 0.3338014 0.27592152 0.23106745 0.23518217 0.28609216 0.23532493 0.22661012 0.044404536 0.11926996 0.19706067 0.38332987 0.37529373 0.19711778 0.20313318 0.4560756 0.40610647 0.33799815 0.32096702 0.18516144 0.39776653 0.49766776 0.28722936 0.3329045 0.3912779 0.5195239 0.4900685 0.4702773 0.31777346 0.13982776 0.24611136 0.31750208 -0.03595426 0.4340858 0.1598854 0.11515215 0.55103767 0.4115759 0.39220512 0.1925275 0.64110386 0.41513923 0.372459 0.23948318 0.043317374 0.07795857 0.38335407 0.5260175 0.6428167 0.41761157 0.44138378 0.36810917 0.38953584 0.43152106 0.20933798 0.46022895 0.42354208 0.36555305 0.19354987 0.20310652 0.21041836 0.16794485 0.3761966 0.40526932 0.39537087 0.4125538 0.39809325 0.2191033 0.19764903 0.20103759 0.2534307 0.26836994 0.54817617 0.5461389 0.20034254 0.17166212 0.28533354 0.32108623 0.31455407 0.59117526 0.5929718 0.5427773 0.462425 0.3158319 0.34535185 0.6110682 0.5773884 0.48039106 0.4998985 0.44807026 0.60479015 0.49297684 0.43132812 0.4188937 0.39797473 0.54847217 0.36017054 0.29494414 -0.09602368 0.28010273 0.2621371 -0.17804268 0.1464504 0.12289079 0.4601043 0.33424956 0.26545855 -0.18339008 0.006351702 -0.022710811 -0.03483424 0.43207067 0.4788764 0.49158412 0.4224231 0.4468016 0.36187926 0.13191345 -0.012183294 -0.07353302 0.19683488 0.3608094 0.39866507 0.41172427 0.3725192 0.38796145 0.10798246 0.103094116 0.29890358 0.2906944 0.18112633 0.16750729 0.18726194 0.17490557 0.17902826 0.18560782 0.34188083 0.30663222 0.28451267 0.38801634 0.3325441 0.14251539 0.341606 0.3658938 0.26022267 0.19590442 0.024021257 0.35649544 0.24710721 0.1270233 0.008327633 0.14560682 0.38422966 0.28916058 0.27885056 0.31226942 0.5680306 0.49001488 0.32336086 0.227218 0.4212268 0.5329083 0.44861403 -0.16705215 -0.07069948 0.17411041 -0.111007005 0.122337796 0.12236485 0.14532107 0.16975898 0.33795986 0.19217572 0.20835267 0.22620657 0.23340183 0.41447812 0.352363 0.13994361 -0.013627991 0.2022522 0.2137742 0.22104672 0.22496447 0.5644561 0.1502121 0.56484973 0.55675644 0.3228843 0.2874363 0.5899666 0.5956191 0.38560408 0.33226717 0.3584062 0.34686017 0.61022055 0.6231358 0.5705663 0.50440526 0.42120183 0.3555776 0.37081677 0.6142464 0.6116433 0.56526697 0.44391555 0.41295597 0.59534514 0.40975523 0.487735 0.3483575 0.29720527 0.15640064 0.19921646 0.40380055 0.37533492 0.37338042 0.02051162 0.47510302 0.55141705 0.5954234 0.5707883 0.43104753 0.42257148 0.40776908 0.35783643 0.17994332 0.012152545 -0.056391027 0.0934825 0.39185756 0.5131425 0.53643227 0.4244607 0.47684315 0.51038665 0.34343952 0.35636628 0.3182502 0.0625743 0.18311912 0.22326471 0.26583323 0.11566292 0.23499788 0.0147206625 0.04478734 0.17944504 0.213726 0.24804649 0.018843846 0.02176096 0.058380604 -0.2885416 0.17309707 0.33485743 0.28020367 -0.1766548 -0.12010447 -0.0695294 0.440211 0.41505378 -0.050233215 -0.021476068 0.39551044 0.39050356 -0.066224754 0.024775129 0.51516557 0.35383055 -0.1359842 0.119919285 0.6004038 0.2256501 0.23762283 0.63387966 0.6096904 0.0017748252 0.24358284 0.6022005 0.5420127 0.086899675 0.041307613 -0.11263582 0.032688014 0.23051244 0.14753908 0.6123223 -0.024583846 0.12296841 0.013607234 0.061997544 0.14914209 0.22979592 0.2274428 0.22944859 0.65904975 0.6140038 0.6353062 0.33042926 0.6018115 0.5970913 0.36842924 0.34447557 0.6029154 0.35695347 0.39191604 0.3943531 0.59647477 0.5617925 0.4867676 0.44042498 0.3844524 0.39728037 0.4063171 0.60984594 0.5965304 0.5680776 0.46996137 0.3832832 0.6009824 0.36815205 0.32458848 0.31395116 0.49261242 0.2590576 0.54821354 0.30272585 0.17139144 0.34460825 0.5363649 0.59266335 0.583376 0.4147306 0.40107375 0.34838414 0.13287427 0.08323731 0.02012239 0.3650325 0.6194106 0.5957442 0.4354083 0.0054294765 0.57150376 0.32465717 0.5061956 0.3392282 0.24657008 0.09235989 0.27829763 0.33502245 -0.021697422 0.23833412 0.32045162 0.42146116 0.11485666 0.1316328 0.25639844 0.28942323 -0.09166354 0.1280106 0.22726326 -0.2573255 -0.15883535 -0.117397174 -0.06585637 0.07604814 0.3873354 0.5891168 0.5895932 0.4693115 0.43836778 -0.06697887 -0.09989786 -0.063275725 0.033890307 0.3662224 0.51332676 0.6422179 0.6265836 0.4347428 0.468215 -0.0144241825 -0.03941103 0.089838706 0.25471961 0.62464917 0.66960776 0.6555064 0.40921396 0.012317602 0.008932844 0.028187588 0.20871933 0.52201957 0.6228157 0.6471915 0.63421166 0.59005606 0.5419026 0.21082112 0.18395153 0.5521741 0.58161545 0.6025007 0.6367854 0.20798282 0.24435899 0.2487887 0.5686805 0.5750096 0.64334255 0.15594888 0.23987484 0.23119369 0.1324761 0.16556962 0.66820174 -0.11438109 -0.09217801 0.18924314 0.23477271 0.36114115 0.6806191 -0.13728881 -0.105953395 -0.107753254 0.08044335 0.1737263 0.18757284 0.14355034 0.086757444 0.68505454 0.6723207 0.103356294 0.6392324 0.59683585 0.40553117 0.5579957 0.5120171 0.43317384 0.43740016 0.5193411 0.5147667 0.5040189 0.45199564 0.43527356 0.44780385 0.4983958 0.57742083 0.56035054 0.5115278 0.5782108 0.56975937 0.48735029 0.27407587 0.23799986 0.5455497 0.27253705 0.5570945 0.56250685 0.1856902 0.14434792 0.560118 0.5810441 0.5913825 0.6091684 0.5711531 0.5179411 0.4365602 0.35956365 0.30345312 0.18967867 0.5927322 0.5883882 0.31244993 0.12631997 0.5405024 0.5227636 0.5553652 0.49163622 0.49568456 0.48701185 0.37997067 0.65348905 0.68815887 0.60864764 0.68419945 0.09836109 -0.0009203851 0.49940032 0.6015552 0.20378794 0.08327195 0.45284408 0.557774 0.27057773 0.4540732 0.45393878 0.36427173 0.5620552 0.41245633 0.4240018 0.6095642 0.37859824 0.3418817 0.61381066 0.33001295 0.38421106 0.57536596 0.5789807 0.6241821 0.56641716 0.22743224 0.21476327 0.4702305 0.5513555 0.5607251 0.6136853 0.6140007 0.2005921 0.610402 0.17444947 0.55320865 0.27242708 0.31041482 0.6830065 0.5012685 0.5144559 0.7106365 0.7093888 0.059978697 0.13026598 0.054188482 0.17034812 0.48124698 0.5794564 0.6353304 0.7049246 0.70569265 0.38035277 0.10923303 0.11155923 0.103377104 0.057501864 0.040892243 0.2754917 0.52089804 0.664019 0.6986054 0.6688211 0.28931403 0.1268292 0.058655657 0.093852505 0.06966729 0.34449565 0.42378885 0.5555489 0.51761 0.47545388 0.4331559 0.4901256 0.45245486 0.41867357 0.32405788 0.52365875 0.5228141 0.5408275 0.51370704 0.49234396 0.5210126 0.55131674 0.5297467 0.45588216 0.5366912 0.53574145 0.5620126 0.5365611 0.4898858 0.4510056 0.26059574 0.21242595 0.21617205 0.20341775 0.19275428 0.45491558 0.1689471 0.4081155 0.5374676 0.5542308 0.60160834 0.5694196 0.17730653 0.15741096 0.07668884 0.55985314 0.5697019 0.63856673 0.6035813 0.54766834 0.49876514 0.55768895 0.65404737 0.6680749 0.23073314 0.16861302 0.49424285 0.61150676 -0.15976213 0.36309615 0.56035846 0.6284531 0.48287833 0.66423666 0.7066046 0.7379472 0.7086241 0.26157212 0.20913233 0.4746169 0.59853375 0.27213937 0.38513535 0.19696024 0.4300009 0.421543 0.51411086 0.49085587 0.19160879 0.5462645 0.4964378 0.24800618 0.062460523 0.15241635 0.24666262 0.3377543 0.439328 0.51830626 0.5435263 0.46447474 0.36873546 0.08792597 0.13064702 0.19176832 0.42314482 0.15792674 0.36455053 0.21856935 0.3635127 0.65734535 0.5678136 0.47229126 0.49331036 0.6799914 0.62301666 0.6111631 0.64054894 0.6789923 0.6328119 -0.07163062 -0.07214126 0.18576585 0.09508057 0.31559154 0.71734464 0.65701514 0.6136113 0.26765665 0.30532104 0.2957062 0.08764871 0.11192424 0.14758314 0.26987642 0.49671698 0.6289471 0.7367976 0.54847366 0.45590937 0.4137191 0.40719286 0.46213397 0.4536132 0.07284477 0.17791754 0.19400786 0.56473005 0.5793811 0.5725913 0.5289248 0.5042504 0.4961149 0.56672776 0.5344012 0.58515155 0.592827 0.5692523 0.53765976 0.4777791 0.55072224 0.5279122 0.20105597 0.20068666 0.18295963 0.045706302 0.16699633 0.2984674 0.44030738 0.60233474 0.58605456 0.121838704 -0.09288498 0.4574893 0.50617826 0.6388909 0.6159703 0.5873777 0.50152284 0.32790062 0.16685154 0.49482358 0.4575486 0.64716446 0.63464105 0.37144524 0.6214869 0.10770957 -0.39130947 0.1925857 0.21086422 0.57924247 0.392291 0.61151785 0.49047184 0.64679444 0.70068073 0.19373767 0.765978 0.18412346 0.7341789 0.37288553 0.62414664 0.40647668 0.36300173 0.2711786 0.37227517 0.06754354 0.2629352 0.26838574 0.2576363 0.3045299 0.25347337 0.44600832 0.42245787 0.079269856 0.23740798 0.11878228 -0.09674223 0.053598322 0.08082162 0.13011758 0.20746307 0.26737487 0.56615436 0.58540094 0.50747347 0.4244401 0.636462 0.5811549 0.5135287 0.47262582 0.4161479 0.7131567 0.6703663 0.5584008 0.5268748 0.48674437 0.45362836 0.013445035 0.19882867 0.32922828 0.39454365 0.65094566 0.73006856 0.53866565 0.530419 0.5282399 0.5157381 0.37301037 0.3414666 0.17886576 0.22800045 0.26048076 0.24479684 0.4887242 0.56895024 0.57319033 0.56124264 0.47797316 0.44474557 0.4604807 0.26071417 0.36153004 0.5608654 0.57379663 0.4633979 0.3894142 0.51946497 0.45233524 0.28892094 0.271998 0.26847097 0.2204 0.20685363 0.021069711 0.17220016 0.17859498 0.13731581 0.10323641 0.041087493 -0.12016444 0.13031715 0.25600386 0.29428646 0.39811194 0.61554253 0.59407794 0.47636163 0.12130811 0.36093044 0.6160896 0.61544824 0.6033715 0.60304695 0.33354837 -0.19978672 0.27475378 0.5690836 -0.05426167 -0.46781898 0.5541102 0.116777785 0.49009168 0.5625989 0.5208708 0.63204575 0.6835642 0.02987726 0.6910794 0.732 0.2780815 0.14615594 0.7222253 0.7707844 0.37614384 0.4219482 0.43787736 0.4346732 -0.0140137095 0.39872336 0.21685886 0.20145914 0.08305819 0.12833382 0.22890347 0.27950108 0.25602794 -0.31551307 -0.028483815 0.03563896 0.39904445 0.36088008 0.28310138 0.29153514 0.25649592 0.5081872 0.54412836 0.25760204 0.39966422 0.44154543 0.20396318 0.46990305 0.32011193 0.091166176 0.18222034 -0.03066723 -0.38904023 0.6217792 0.61290157 0.3749624 0.265795 0.056470536 -0.18808755 0.32767937 0.58510727 0.71348417 0.11843083 0.32048535 0.27339736 0.49080443 0.32331443 0.059469275 0.33257443 0.3637535 0.34748334 0.45293796 0.27538207 0.48574913 0.27528405 0.22621094 0.2904538 0.3561988 0.34304166 0.24948774 0.22599337 0.22728314 0.21595395 -0.05692109 -0.05670488 0.19737849 0.34319723 0.014811045 -0.061272454 -0.08211086 0.24992704 0.23205051 0.2892831 0.54688954 0.5353802 0.5041829 0.22066611 0.11140707 -0.23467985 0.1898163 0.25763652 0.4893363 0.47245997 0.11026082 0.060385313 -0.090658225 -0.19521247 0.23670036 0.05432708 0.35569167 0.53711087 0.64815414 0.29911244 0.18474323 0.5016617 0.6573466 0.3929795 0.32824066 0.4431328 0.4410742 0.3867763 0.19195315 0.18732598 0.098853715 0.077596195 0.18672183 0.21201926 0.061539136 0.31152853 0.24636912 -0.45920122 0.055932872 0.361376 0.3317007 0.2506687 0.27165252 0.4501615 0.38665274 0.25623888 0.17068341 0.5360397 0.55976295 0.5291328 0.44958025 0.23376736 0.32168633 0.360037 0.5412636 0.5710318 0.56392545 0.14346993 0.46340233 0.59602976 -0.06947524 0.009968093 0.3127067 0.29434532 0.2007359 0.30440575 0.34019637 0.34249732 0.15237164 0.22350892 0.11573756 0.2834676 0.36590096 0.30746043 0.4076722 0.2977099 0.35902578 0.33649027 0.25949743 0.28427887 0.24743536 0.24545264 0.26539695 0.43787858 -0.1303091 0.28780007 0.27602586 0.2601089 0.4611975 0.2777226 0.08292553 0.046682794 0.035691954 0.22341214 0.18363047 0.11780781 -0.05671937 0.035021294 -0.102090985 0.19886795 0.10777941 0.22322233 0.3782689 0.43027645 0.41723573 0.22861916 0.41588306 0.3865189 0.293978 0.31398046 0.35785475 0.14976662 0.27615863 -0.06917612 -0.14230452 0.2524481 0.24644862 -0.008053571 0.28049362 0.3374038 0.1101902 0.39342976 0.3613271 0.24170056 -0.24312064 -0.03455008 0.50364065 0.44251782 0.21819836 -0.015662812 0.40435576 0.51493627 0.57300776 0.55718184 0.4972443 0.56393754 0.02775263 0.21419168 0.1118543 0.061801996 0.28082687 0.018292516 -0.21222839 0.0715377 0.25247362 0.019877337 0.21054456 0.31205386 0.31094047 0.32734287 0.3946175 0.4018891 0.39651808 0.37243262 0.31300682 0.27131844 0.33032745 0.2783905 0.5232005 0.5106654 0.44840398 0.3924845 0.26323655 0.16610637 0.18079601 0.25154293 0.2290875 0.25580427 0.48557797 0.51820564 0.31304613 0.30184415 0.14722434 0.28174353 0.14539409 0.061619096 0.071698286 0.08665684 0.120251566 0.20876452 0.23738214 0.12693584 0.3267265 0.26130766 0.11707831 0.34792158 0.31468618 0.21421772 0.38034886 0.3962863 0.23559493 0.17507303 0.3642515 0.0020957328 0.30724937 -0.112650454 0.26542938 0.25383842 0.05382175 0.2913769 0.33294383 0.32152367 0.38225856 0.1305448 0.5126759 0.46068543 0.22824147 0.46429807 0.519898 0.28037775 -0.18340723 0.27416974 0.20713396 0.06817949 0.17011508 -0.27232385 0.12831241 -0.12746052 0.18490766 0.21616861 0.32336348 0.3466673 0.41408545 0.3746805 0.40057996 0.404627 0.44793937 0.40744257 0.30504805 0.38870296 0.35622922 0.3560569 0.2752727 0.21616572 0.0834041 0.5146931 0.5036906 0.45649126 0.34609827 0.29744303 0.11793205 0.46828443 0.5075183 0.19941142 0.29801708 0.40859643 0.29721338 0.34790903 0.102389544 0.16215275 0.2283116 0.11370252 0.20309941 0.23490447 0.16290648 0.25055164 0.21455216 0.17130844 0.2290406 0.24765863 0.14652105 0.32585484 0.3711913 0.3573786 0.28676948 0.30849335 0.38177633 0.094771884 -0.026510835 0.32967398 -0.01317171 0.28316593 0.2251399 0.10279924 0.22084142 0.13007098 0.27572668 0.08811354 0.3262633 0.28470528 0.37492043 0.18633334 0.41986716 0.42175096 0.27507192 0.18342578 0.166132 0.36466774 0.2811559 0.2849848 -0.23001456 0.11365174 0.27742016 -0.086447224 0.2447358 0.29487702 0.20133105 -0.2514396 -0.28573918 -0.1779542 0.19358242 -0.17540848 -0.071334496 0.3332249 0.3250292 0.041674256 0.26882407 0.34267628 0.3415064 0.47952402 0.44268528 0.41371018 0.30881292 0.26163065 0.4316694 0.36506307 0.23899344 0.053369846 0.4916694 0.4808144 0.4382352 0.3667581 0.28344396 0.47754925 0.48245826 0.42265043 0.30735397 0.33746976 0.2165193 0.31122035 -0.0028331093 -0.0012438521 0.28150862 0.16024709 0.06408007 0.2066478 0.2665016 0.24609065 0.04994212 0.39381403 0.16630621 0.43601438 0.30767307 0.3619697 0.3949117 0.3417429 0.28228086 0.24959865 0.3387935 0.18012005 0.19761299 0.26566523 0.23323321 0.2126337 0.16127926 0.32288948 0.33950177 0.16282536 0.40459952 0.41292894 0.4225922 0.25257224 0.09359166 0.335585 0.38372543 0.26034474 0.11209553 0.07153957 0.104860604 0.39523676 -0.0025132373 0.07762427 0.24897994 0.4217939 0.43790895 -0.0062462976 0.0316275 0.48866853 0.58661306 0.45357972 0.43292746 0.0438182 0.43334025 0.6171026 0.7053484 0.7051819 0.44277793 0.42969686 0.09406778 0.1356996 0.1544185 0.5089582 0.66926646 0.75312495 0.75876975 0.436 0.36010247 0.29222786 0.21461315 0.26211065 0.20836274 0.499871 0.4958849 0.38806754 0.33262306 0.25125068 0.22938876 0.4464078 0.46741503 0.20069255 0.3289471 0.329298 0.39308307 0.4599867 0.42554215 0.33876508 0.1914002 0.2643399 0.2698255 0.51260185 0.5449275 0.45240253 0.40587837 0.12119249 0.5099993 0.5413672 0.38070536 0.401965 0.62238014 0.31369448 0.6078148 0.2119107 0.3519034 0.37577868 0.37464842 0.48368523 0.42457312 0.49301106 0.21787111 0.46920502 0.4480101 0.4391719 0.43197805 0.31072557 0.18005195 0.24313813 0.09683375 0.31699607 0.32723635 0.33259124 0.03433277 0.30443496 0.20411855 0.2148893 0.07373924 0.3380598 0.32338822 0.1410408 0.41477638 0.20605439 0.17997938 0.4119456 0.42189002 0.18254685 0.16172427 -0.05045401 0.30862883 0.3867662 0.1695615 0.1484892 -0.18753284 0.25929326 0.26232892 0.069858015 0.43647698 0.42468157 0.54173934 0.5473777 0.60045785 0.53958046 0.49024945 0.058872 0.70442665 0.7006733 0.5279106 0.5289499 0.1653879 0.10093164 0.3883592 0.5316454 0.6549666 0.76804423 0.50541556 0.48500448 0.19890666 0.11823369 0.6169077 0.7197174 0.81410074 0.8018203 0.23562029 0.1847756 0.208383 0.23602366 0.29911178 0.28784963 0.437632 0.46718597 0.49115264 0.47891352 0.42298535 0.37114632 0.38649696 0.36165202 0.3100424 0.3834082 0.5039653 0.51731336 0.30663115 0.5361593 0.52440715 0.26979786 0.22345579 0.011550605 0.011579044 0.5969199 0.33037794 0.11655105 0.65178597 0.63864756 0.25459367 0.49016088 0.5456769 0.62435085 0.14734627 0.1925352 0.6043753 0.06537005 0.19901778 0.32141834 0.33527023 -0.014496695 0.25936702 0.7409074 0.7091423 0.24313709 -0.055243365 0.66260487 0.6671934 0.46901888 0.28128225 0.6099871 0.6377106 0.4963956 0.47742754 0.47327325 0.448476 0.37767726 0.40909457 0.009364493 0.20524126 0.303091 -0.15107027 0.32823026 0.30957162 0.2871399 0.26070425 0.19264074 0.116123244 0.10944897 0.3240229 -0.0459325 0.39070296 0.15648872 0.12373653 0.39384842 0.1367121 0.012463696 -0.13613647 -0.07409039 -0.089662045 0.028991638 0.16506065 0.31432483 0.16510937 -0.08534661 0.42411208 0.40927464 0.16330186 0.51390433 0.55518293 0.5802635 0.5487204 0.58061373 0.6847558 0.55775994 0.52758753 0.11976752 0.7524507 0.7159357 0.5461796 0.086906865 0.6337745 0.7681434 0.8226782 0.77994835 0.30032432 0.27692285 0.32390374 0.6068572 0.59339476 0.6074369 0.402991 0.5020