# vtk DataFile Version 2.0
Really cool data
ASCII
DATASET POLYDATA
POINTS 2750 float
24.325903 22.777056 -1.3563243
24.321732 22.594376 -0.46107203
24.397602 23.074419 -0.08257645
24.382013 23.368706 -1.7872555
24.189058 23.467175 -1.2320718
24.158201 23.465813 -0.4917828
24.297194 23.535782 -0.065554336
24.265144 24.093098 -1.2260666
24.273252 24.149952 -0.60074764
24.299501 32.86113 -4.2308483
24.271101 32.708923 -3.730858
24.318913 32.923424 -3.1586835
24.256552 33.447777 -4.2615027
24.20415 33.394753 -3.5577955
24.345362 33.355972 -3.082356
24.458065 34.73099 -4.901059
24.344372 34.296227 -4.237267
24.36465 34.306305 -3.930042
25.050198 22.178694 -1.84996
24.796543 21.966778 -1.2061437
24.78979 21.897713 -0.6009242
24.88915 22.006025 -0.027123287
24.857836 22.69344 -2.061677
24.521635 22.524588 -1.5415767
24.700693 22.496307 0.14337352
25.135714 22.909983 0.6867474
24.72013 23.386269 -2.0885897
24.498285 23.5448 0.13545945
25.050741 23.3383 0.7427119
24.863249 24.216509 -1.9706398
24.565006 24.333973 -1.5211099
24.426773 24.463858 -0.51053494
24.72794 24.180765 0.2463237
25.089375 24.78303 -1.6493325
24.908415 24.905008 -0.5654974
25.086958 24.961222 -0.10779232
25.329935 31.226765 -4.3897305
25.233658 31.17467 -3.7161908
25.24819 31.966894 -4.871982
24.749416 31.970762 -4.217412
24.652103 31.906277 -3.6123338
24.851341 31.819466 -3.0456104
24.795393 32.55847 -4.859924
24.53767 32.580803 -4.552889
24.42424 32.269577 -3.9145658
24.710157 32.606606 -2.7084136
25.188854 33.88839 -5.844422
24.713749 33.64956 -5.2273273
24.556414 33.412437 -2.791557
25.003647 33.188686 -2.2722728
25.186039 34.63165 -5.916682
24.663036 34.45593 -5.2468896
24.636684 34.610268 -3.6537483
24.850647 34.21322 -2.7912247
24.763397 35.38122 -5.185078
24.65639 35.407623 -4.5322127
24.910597 35.52254 -3.8620243
24.978497 34.826305 -3.168633
25.102457 35.913857 -5.394083
24.992872 35.900978 -4.43851
25.07282 35.765934 -3.9817176
25.606369 22.085112 -1.9891226
25.460678 21.705254 -1.3495904
25.42069 21.589434 -0.57301044
25.300055 21.899813 0.14311418
25.68597 22.917006 -2.6080852
25.458284 22.65705 -2.4254658
25.610046 23.096886 1.1667109
25.686972 23.417398 -2.601946
25.732943 23.44774 1.264487
25.57183 24.24804 -2.3079374
25.986189 23.99216 1.5330969
25.729933 24.897491 -2.0696714
25.524107 25.500103 -1.3766644
25.631226 24.875168 0.7138231
26.109589 25.265282 1.1288173
25.754084 25.880627 -1.198688
25.602459 25.941643 -0.60106707
26.052563 26.21134 0.32683265
26.217653 26.803375 -0.32273933
26.06599 30.262148 -3.4622796
26.031225 30.987087 -4.9519706
25.729393 30.846252 -4.31511
25.601988 30.733091 -3.552083
25.957972 30.520811 -2.7723157
25.612207 31.472067 -4.916569
25.374895 31.267702 -2.6745317
25.716208 31.741936 -2.1665316
26.212791 32.24437 -5.8062506
25.588913 32.633434 -5.6188817
25.715422 32.527157 -1.9341227
26.265934 33.62695 -6.6837583
25.8061 33.632446 -6.265684
25.564135 33.296757 -1.960063
26.080736 34.1782 -6.5751405
25.721483 34.611237 -6.291061
25.68909 34.548626 -2.3358023
25.560604 35.212063 -6.0494733
25.895422 34.77717 -2.4207056
25.300508 36.02757 -5.401187
25.655815 36.314552 -4.812588
25.890867 36.01772 -3.822875
25.965298 35.64315 -3.3279588
26.009478 21.471058 -0.6444813
26.076536 22.038221 -1.9912763
26.41755 21.847345 -1.3608379
26.319202 21.577757 -0.55374575
26.535862 21.887848 0.24952774
26.181093 22.866772 -2.6197991
26.368305 22.58297 -2.3388011
26.601751 22.671972 1.2561107
26.315567 23.260752 -2.6343875
26.699287 23.815248 -2.4814947
26.701786 23.45458 1.7151176
26.85742 24.140047 -2.5084229
26.04586 23.924143 -2.5228205
26.516878 24.36902 1.766742
26.715137 25.64958 1.6492581
26.795418 25.059715 1.8939861
26.5019 25.966366 -1.8278394
26.940727 26.578255 1.5343626
27.166595 26.042957 1.9897017
26.975561 27.546364 -0.71566623
26.798252 27.296164 0.41364515
27.27409 27.14195 1.4673271
26.594551 30.128868 -4.2144833
26.405466 30.144659 -3.3106673
27.353586 30.72583 -6.0492344
26.567451 30.75323 -5.3496842
26.835857 30.938334 -1.8605158
27.235596 31.977041 -6.923445
26.991348 31.55999 -1.5577606
26.858877 32.796524 -1.4668393
26.542595 32.99396 -1.5865192
26.851608 34.23665 -6.904063
27.222513 34.903854 0.79020536
27.379366 34.391327 1.6522639
27.337574 34.856033 2.17009
26.428255 35.49719 -6.0976925
26.317314 35.180183 -2.7509995
27.35034 35.286316 0.5284227
26.817709 35.84028 1.7857516
26.95981 35.913292 2.3340812
27.24781 35.805008 2.7390327
26.467468 36.41861 -4.641902
26.271679 36.019836 -3.544735
26.497353 35.73679 -3.2666473
26.77401 36.288548 0.93672913
26.77429 36.480667 1.6142951
26.97115 36.514828 2.381451
27.083874 36.241478 2.7011423
27.074389 37.22151 0.90781987
27.041496 37.341106 1.5199773
27.105087 37.161312 2.23544
27.263453 36.91735 2.7129679
27.229073 38.881504 -6.339224
27.34025 37.67993 1.7854518
27.303724 37.73477 1.8908199
27.146738 39.59997 -6.095925
27.076525 39.482033 -5.5255685
27.260374 39.470657 -4.8543153
27.265013 39.868668 -6.2347965
27.28979 40.082497 -5.543251
27.288801 39.83107 -4.943244
26.990093 22.070662 -1.3164219
26.950108 21.814993 -0.50953656
27.086512 21.998856 0.36425108
27.300491 22.857529 -1.904505
27.633905 22.55473 -1.4796762
27.303865 23.599705 -2.2413604
27.538929 24.976206 -2.525399
27.02565 24.132238 -2.4822888
27.700958 24.520065 2.106389
27.824162 25.185951 -2.5436752
27.458506 25.385965 2.2273798
27.417204 26.02209 2.1244535
28.363808 27.50602 -4.1336737
27.505854 27.355843 -1.4027367
27.91178 27.838947 1.89442
28.29463 28.454967 -6.062397
28.087137 28.517336 -5.221574
28.11333 28.57294 -4.4814787
27.625982 28.795372 -3.2347403
27.705048 28.722395 0.42252606
27.89272 28.252808 1.5703348
28.404 28.940948 6.0511765
28.062014 29.931168 -7.0058227
28.098219 29.590809 -6.388448
27.98017 29.221605 -5.569892
27.877825 29.061146 0.3820643
28.403114 29.520092 4.5961866
28.287895 29.597116 5.658964
28.307856 29.670523 6.4555373
28.415735 29.825079 6.8298016
28.13679 30.85852 -8.15955
27.816895 30.485573 -7.2249227
27.632315 30.682573 -6.414958
27.544859 30.329632 -1.3193971
27.71456 30.326662 -0.8131455
28.277107 30.270575 0.51122874
28.398058 30.12329 4.8611736
28.251844 30.248425 5.7383933
28.3442 30.144821 6.427418
28.040558 31.92694 -8.785503
27.910133 31.569534 -8.343403
28.22889 31.885477 0.32657498
28.360868 31.784966 1.0541295
28.099852 32.224876 -8.861559
27.739515 32.50237 -8.305842
28.010937 32.71902 1.2975191
28.213833 32.77814 2.4377794
28.10434 33.308956 -8.381828
27.46158 33.711426 -7.53269
27.772766 33.51784 0.25986004
27.589426 33.51476 1.0179992
27.874243 33.361195 2.221933
27.53857 34.31182 -1.3229839
27.405273 34.823673 2.4057558
28.01288 34.09794 2.710237
27.902718 35.07455 -6.688181
27.190498 35.59041 -6.077879
27.437403 35.767292 -0.06978333
27.392864 35.28464 2.6332052
27.591072 35.577538 2.8852813
27.892145 36.616158 -0.3762888
27.726393 36.480625 3.0548804
28.374401 38.176704 -10.704247
27.974705 37.254032 -3.4947362
28.173903 37.070488 -2.8425684
27.688913 37.41125 0.18857422
27.539196 37.504513 2.4301612
27.713476 37.163563 2.7922387
28.3141 38.601204 -11.098627
28.070782 38.303764 -9.342367
27.76842 38.64495 -8.462948
27.490847 38.70128 -7.6230702
27.906586 38.5269 -4.2255607
27.934362 37.673107 0.26067758
27.81169 37.94886 0.8256415
27.65942 37.961136 1.3566842
27.817295 37.92008 2.188497
28.45503 39.92243 -13.1589575
28.359015 39.717163 -11.498689
28.171444 39.426006 -10.623572
27.6666 39.434692 -8.303943
27.528778 39.53752 -7.7188997
27.504677 39.424046 -4.51283
28.03284 39.404697 -4.044749
28.390505 40.529316 -14.849603
28.309605 40.488888 -14.551879
28.366684 40.659687 -12.972708
28.243061 40.20106 -11.351187
28.25729 40.16354 -10.842069
28.174469 39.92462 -9.520856
28.062464 39.989216 -8.500161
27.709867 39.868374 -7.5154943
27.561443 40.280453 -6.3711944
27.461933 40.279568 -5.459192
27.727194 40.293648 -4.806122
27.865662 39.87103 -4.317408
28.290365 41.264843 -14.493731
28.31816 41.448452 -13.618549
28.42221 41.283783 -12.706365
28.457287 41.099197 -11.481964
28.200863 40.64166 -7.0477037
27.991285 40.632874 -6.450556
27.92966 40.735138 -5.6201057
29.067667 20.94049 2.1565247
29.197384 21.227886 2.7909508
28.090246 22.106369 0.12711397
29.108114 21.302904 2.8642547
28.31687 22.689905 -1.1315987
28.858454 22.301388 2.486366
29.209 22.110952 3.259506
29.306856 22.497066 3.9605627
28.942978 23.374008 2.5819144
29.232462 23.623457 3.272338
29.34187 24.123169 3.3584006
29.25885 25.98799 -5.271533
29.207924 26.126886 -4.788372
28.655643 25.324516 -2.430246
28.61375 25.631367 2.5203753
29.22219 25.453468 3.0768487
29.194473 26.83602 -7.1921153
29.063416 26.662874 -6.4195585
29.062868 26.419958 -5.3046274
28.689474 26.813246 -4.705605
28.617771 26.66255 -3.084423
29.03182 26.227678 2.7968347
28.760946 27.43861 -6.3419805
28.686136 27.235392 -5.490252
28.36971 27.266657 2.727726
29.051397 27.966297 4.9140124
29.406418 27.267248 5.9239135
29.367422 27.387564 6.198647
28.927992 28.876743 -6.9852147
28.604984 28.182238 -6.477844
28.618134 28.727898 5.5146866
28.959646 28.479906 6.4268847
28.7686 29.025858 7.0511765
28.768095 29.685398 -7.7696443
29.204062 29.693634 2.8988352
28.720022 29.808657 3.942791
28.622454 29.311338 4.4834166
28.480833 29.207443 6.612753
28.651262 29.753977 7.096612
29.261032 29.75677 7.748857
28.832996 31.092728 -9.010362
28.548326 30.523022 -8.307331
28.681572 30.0874 1.5490925
28.52032 30.658747 5.179968
28.462818 30.287348 6.614917
28.734169 30.301292 7.0494633
28.6742 31.65329 -9.19295
28.69705 31.146965 5.092621
28.659597 31.141123 5.522236
28.651772 30.937199 6.436756
28.595901 32.481647 -9.291949
28.37518 32.815155 2.5523005
28.46341 33.068226 2.8331327
29.207457 31.64883 6.015895
28.462278 32.98779 -9.036409
28.372604 33.344837 -8.573442
28.721258 33.179996 3.0421221
29.178238 34.262596 -8.841459
28.74074 33.991978 -8.202107
28.915915 35.036514 3.3112822
28.737719 37.15265 -8.528676
28.653843 37.92123 -11.029564
28.471 37.326477 -8.427548
29.253464 37.32033 -2.3358874
29.167883 37.316734 -2.0948203
[...]
POINT_DATA 2750
SCALARS features_00 float 1
LOOKUP_TABLE default
0.9786003 0.91956604 0.8228773 0.93561095 0.9136466 0.8481702 0.7842422 0.8342055 0.7914563 0.5972743 0.6071503 0.6288802 0.6357653 0.6426336 0.641447 0.6999121 0.67531383 0.6691948 0.94860643 0.99490553 0.9843876 0.9126689 0.9368452 0.9880296 0.83466667 0.7084255 0.9099585 0.7456964 0.66189027 0.818835 0.8008702 0.7442116 0.67462015 0.7248199 0.6678271 0.61573577 0.4288298 0.47411615 0.4408318 0.51526827 0.5493163 0.57269216 0.51289237 0.5483516 0.5664979 0.6134745 0.5255611 0.5967667 0.6375836 0.599931 0.5854753 0.667657 0.65434206 0.6230763 0.7321966 0.7128054 0.6417314 0.6000335 0.7574166 0.69241625 0.6386767 0.88708633 0.9316031 0.9305098 0.88657415 0.78103507 0.8509273 0.6012289 0.73884016 0.5395236 0.7276166 0.43840504 0.66849214 0.6096616 0.48784018 0.35543087 0.537374 0.5250175 0.39360788 0.38351566 0.4019968 0.3051856 0.3864353 0.44824362 0.465684 0.3781277 0.5350381 0.4906416 0.28558147 0.41373825 0.47546297 0.32194424 0.41308588 0.53250945 0.3933128 0.48327187 0.5065609 0.5967183 0.46383312 0.76455927 0.69628763 0.52559376 0.48873937 0.84726226 0.82413137 0.7961558 0.7997991 0.7697489 0.7073028 0.7193089 0.6349912 0.65666246 0.5714456 0.36783242 0.53220767 0.65168184 0.3205347 0.248609 0.24125335 0.4991113 0.23543108 0.19016773 0.3291942 0.27513322 0.21802118 0.25124434 0.3739138 0.04704304 0.17623295 0.28869027 0.20088051 0.21569467 0.25976658 0.33816338 0.27466446 0.46224886 0.38634646 0.44879073 0.51754695 0.4028619 0.53036004 0.59178364 0.5932617 0.56977016 0.5617657 0.4259013 0.37343264 0.7033179 0.6700077 0.65304136 0.6280596 0.7042712 0.69106746 0.6791488 0.6665535 0.39876366 0.67378646 0.67222756 0.49131477 0.5510004 0.54946387 0.4919181 0.57477105 0.58200043 0.7121361 0.70200354 0.7053933 0.59889376 0.60587806 0.47194436 0.38373584 0.50320256 0.081289604 0.2990162 0.1428648 0.16446315 0.100663185 0.3014203 0.13950454 0.13468495 0.117788285 0.103199005 -0.0111890435 0.04338631 0.08811192 0.45451057 0.1059435 0.06695151 0.049063325 -0.08262772 0.4385311 0.49235785 0.492227 0.4851614 0.31327063 0.15737703 0.06720598 -0.0781524 -0.276371 -0.28784335 0.48058948 0.51678944 0.5111772 0.39958417 0.37295425 -0.06920986 0.028669283 0.3919345 0.33210915 0.21565895 0.27420714 0.23282391 0.17449774 0.12945747 0.2612461 0.29605615 0.056593448 0.43949366 0.34579393 0.21501479 0.40670258 0.65907574 0.49227804 0.50923645 0.5887152 0.6152675 0.20349605 -0.13626356 -0.16193055 0.5980953 0.66507447 0.6504421 0.20132887 0.2860074 0.30153906 0.33442244 0.2267063 0.5413337 0.5855849 0.6278723 0.6342929 0.30577004 0.17663318 0.18741319 0.2939226 0.3406794 0.49794856 0.39956918 0.39717692 0.39032805 0.2676779 0.15932432 0.15147549 0.1813779 0.26449323 0.36498338 0.48940456 0.5794549 0.5833869 0.5062802 0.3718475 0.32174093 0.21250173 0.15295072 0.4094355 0.479689 0.5631231 0.4084265 0.41975644 0.5324669 0.4128919 0.4681471 0.34741092 0.3756809 0.3432917 0.15766984 0.17448276 0.052814648 0.32467198 0.2609559 0.07410818 -0.005779653 -0.112427354 0.36230132 0.34339958 0.3014112 0.19286007 -0.1567994 0.012234946 0.24729326 0.23406573 0.13141374 0.32296383 0.2408768 0.25465924 0.124270365 0.17859839 0.43278098 0.38386565 0.41218072 0.13945046 -0.04722884 0.33970794 0.40639234 0.4568314 0.46069628 0.38152307 0.31922314 0.2733791 -0.25462258 0.5100256 0.5084555 0.48022014 0.377352 0.4940807 0.52313423 0.52001077 0.38144207 0.27101249 0.27641094 0.44659007 0.3198253 0.23885515 0.25170287 0.13785522 0.13551982 0.38253677 0.2455144 0.15112919 0.28668642 -0.17266822 -0.21070643 0.17517851 0.58995384 0.3051495 -0.029864801 -0.088544525 0.55588555 0.6102385 0.39525837 0.37610805 0.20861427 0.32932955 0.39717782 0.2040303 0.5449605 0.49701107 0.39459682 0.21194899 0.15903112 0.15353824 0.15601331 0.37861907 0.42342854 0.47604126 0.5537329 0.41323578 0.27905586 0.18783866 0.18756892 0.16615444 0.5291034 0.5078797 0.4846134 0.22772655 0.24399361 0.55144596 0.55277574 0.5214782 0.2897552 0.47842517 0.4664241 0.47384906 0.43970028 0.4462036 0.41958216 0.39417702 0.40370488 0.38101804 0.32143047 0.35257408 0.32946038 0.012657385 0.22906291 0.22364853 0.46408653 0.4421602 0.34777611 0.06392413 0.14807445 0.093939066 0.40116572 0.4681661 0.4500959 0.3318279 0.28390384 0.16710861 -0.07971751 0.436516 0.37966067 0.41835427 0.12795864 0.22646153 0.06246531 -0.0017006621 0.07704462 0.19011857 0.091688946 0.09702248 0.10650334 0.2947107 0.17807773 0.31051987 0.20398128 0.28057313 0.42624408 -0.14278352 0.3925122 0.25262153 0.20426804 0.23977733 0.37161785 0.32612345 0.17718573 0.23788136 0.4017208 0.36913353 0.24812305 0.24084423 0.3299 0.38357884 0.5151489 0.17796388 -0.27898258 0.47483414 0.5306399 0.49525207 0.38686234 0.31369036 0.4316906 0.4370293 0.2930897 0.2012104 0.115395635 0.08261937 0.31238228 0.23307602 0.19432852 0.41934848 0.3518432 0.17396298 0.33683217 0.3677972 0.3319263 0.5466624 0.5518869 0.21782456 0.2925502 0.31025365 0.5976184 0.57229805 0.55980396 0.28125927 0.29738122 0.32198888 0.5769095 0.5714453 0.44666106 0.5212437 0.5632081 0.5228791 0.48209524 0.5593233 0.5414598 0.40676945 0.39385653 0.37960243 0.3430091 0.2916968 0.4176103 0.2024698 0.5094125 0.57349026 0.59292674 0.44871354 0.4486879 0.43592936 0.3408452 0.2705652 0.093268834 -0.102375746 -0.20820996 -0.0049192784 -0.07089828 -0.042235274 0.13176377 0.39819074 0.49652785 0.55842626 0.56805927 0.42932853 -0.0914989 -0.027788853 0.27445742 0.41357923 0.48221898 0.53263515 0.27775645 0.29780948 0.04340204 0.30353883 0.38207406 0.35445505 0.10228655 0.033900626 0.12607968 0.2510655 -0.056862336 0.07263881 0.14175956 0.22951159 0.24193206 -0.0034324639 -0.077997334 0.10818437 0.115093336 0.19602615 -0.0044474564 0.09514792 0.13169436 0.2620077 0.13472438 -0.18439862 0.22497338 0.36016047 0.19110335 -0.2340936 -0.27215987 -0.1709556 0.45170584 0.39440972 -0.13002631 0.47730744 0.4745842 0.019362971 0.025145344 0.54782724 0.54286826 0.5258167 0.5346297 0.49296147 0.492442 0.113276094 0.16820988 0.08758631 0.41792336 0.20608199 0.23672926 0.24831423 0.21927574 0.19993451 0.1503776 0.4545797 0.17218076 0.06809044 0.25403512 0.26937035 0.24008192 0.21839356 0.62055826 0.24503581 0.17196617 0.18261968 0.2420831 0.63605833 0.26490396 0.6306474 0.60026395 0.3195665 0.34602183 0.60101914 0.57628524 0.3684963 0.34505272 0.3443319 0.36499316 0.3703667 0.5410412 0.4719432 0.4039467 0.37498233 0.4142506 0.40730807 0.40274465 0.5825645 0.57700366 0.5567031 0.4977574 0.56339645 0.39891005 0.33984238 0.3307671 0.48745057 0.3197708 0.2882483 0.14662147 0.1460607 0.3418056 0.49538788 0.5835502 0.61802864 0.39302385 0.61172915 0.60810417 0.40817255 0.34765142 0.17309953 -0.07378891 0.5697921 0.33137834 0.35256386 0.33924305 0.51347375 0.33239082 0.34962988 0.023132052 0.21528602 0.21456188 -0.11488514 0.22746801 0.27006257 -0.13708945 0.24650986 0.2821806 0.025751073 0.008550571 0.02738187 -0.031740144 0.007686738 0.008364037 -0.15028927 -0.17754218 -0.11952017 -0.07442401 0.53099716 0.4455593 -0.108894594 -0.08809338 -0.040388867 0.20431824 0.52395755 0.56464386 0.57409203 0.50561345 -0.11019262 0.008048225 -0.016511403 -0.057336323 0.3232171 0.6100558 0.6240356 0.6223091 0.5380731 0.05781182 0.09402289 0.025771342 0.017567635 0.29523677 0.43767864 0.65335643 0.674354 0.662196 -0.21341187 0.17885262 0.18825993 0.0998831 0.5649064 0.65586174 0.6757631 0.55207556 0.5449513 0.12829918 0.19975427 0.23134817 0.24039683 0.63478994 0.5280114 0.5356981 0.21115084 0.23720914 0.23247978 0.5094652 0.030961804 0.13574886 0.027644612 0.047502838 0.6455705 -0.07896946 0.11378435 0.20024274 0.108745866 0.7135757 0.6796001 -0.08949147 -0.106823295 -0.10707309 0.22210708 0.20917502 0.21435308 0.1557021 0.0854438 0.7151109 0.69942915 0.17526612 0.16720057 0.685042 0.3163609 0.6247375 0.5954697 0.5339534 0.45224434 0.49468607 0.4424582 0.4322129 0.48019743 0.46280316 0.44895145 0.4290715 0.58303463 0.55984336 0.49052796 0.564801 0.57419425 0.33045924 0.32652664 0.29510188 0.2831134 0.46424544 0.18900684 0.40172315 0.1491397 0.09045142 0.076881774 0.13014524 0.18770352 0.5701606 0.6127572 0.61045724 0.58146626 0.5179139 0.38356632 0.32583517 0.19848703 0.5974127 0.588502 0.49503332 0.4156657 0.5500455 0.48836976 0.49744987 0.4578859 0.39132565 0.33299318 0.28898984 0.5720173 0.4718682 0.5968206 0.07408581 0.48616505 0.215622 0.18666649 0.15409201 0.35726765 0.062424384 0.47349393 0.5311481 0.38527402 0.5667294 0.5395069 0.6116368 0.31823674 0.29686964 0.6290958 0.039287344 0.15993811 0.40884364 0.65811217 0.633074 0.5575597 0.5344966 0.23661007 0.20972544 0.26713374 0.331501 0.50706625 0.6270657 0.6482941 0.52323043 0.212278 0.45045665 0.48572838 0.20382935 0.16462307 0.42536056 0.103508584 0.17862046 0.6904738 0.56618077 0.063024275 0.22913745 0.42584342 0.5264937 0.7347922 0.7335166 -0.18685785 -0.110770114 0.16741134 0.12582394 0.021920003 0.17566803 0.3785522 0.6031747 0.61381465 0.64407474 0.73016655 0.73274744 -0.016867347 0.046054233 0.14044291 0.12313609 0.3207234 0.51613146 0.65596116 0.69198155 0.6834751 0.60801196 0.10742351 0.1300129 0.54770017 0.62890697 0.5617684 0.5238428 0.48559776 0.57801974 0.51382905 0.45101386 0.41173622 0.5292222 0.51923084 0.46495005 0.49566168 0.51785135 0.515796 0.4974891 0.5445641 0.5080571 0.4672187 0.48543108 0.48249185 0.5889729 0.56803524 0.5380965 0.49619377 0.40827447 0.30231345 0.2861918 0.27657276 0.25591123 0.22777817 0.46237993 0.19963735 0.45943654 0.5444303 0.5866125 0.10114163 0.5968045 0.60452044 0.6697184 0.6510253 0.59768045 0.19228539 0.19058111 0.55731916 0.6529157 0.4200064 0.4659078 0.5214842 0.5701504 0.45312804 0.5537149 0.5353421 0.5729614 0.66470385 0.4230301 0.6400197 0.7242464 0.32229593 0.7062795 0.13883337 0.5288444 0.62342584 0.26296282 0.45184904 0.59110326 0.2949906 0.23872776 0.44555157 0.53107476 0.19744408 0.5286387 0.2908487 0.1543513 0.57294816 0.11150642 0.5599941 0.43028533 0.20150585 0.4659851 0.5805392 0.6073269 0.57936543 0.4993192 0.23676491 -0.055441096 0.44930834 0.12990591 0.1058726 0.39252487 0.17518106 0.12752935 0.424578 0.68718743 0.63851845 0.4706105 0.31972528 -0.111151695 0.5631598 0.56761926 0.74775094 -0.23639452 0.65024793 0.6501235 0.75688815 0.18959922 -0.07697126 -0.20567596 0.10719998 0.07559069 0.30314603 0.71632254 0.6936798 0.67967707 0.63891244 0.43873644 0.46404147 0.15321611 0.007851586 0.10814161 0.49549168 0.6762307 0.7405512 0.5804043 0.55733323 0.48113108 0.53059185 0.3090653 0.21174042 0.1897361 0.58443403 0.56085086 0.5374268 0.49521518 0.4839878 0.48356068 0.548664 0.6331532 0.4290805 0.3927989 0.52981627 0.5106684 0.5978192 0.62390435 0.56490743 0.5167914 0.6322559 0.5905042 0.19196564 0.18915659 0.24288511 0.23260042 0.20607296 0.33278248 0.34169438 0.21362789 0.20393941 0.069080874 0.23609436 0.19641227 0.35254812 0.44535863 0.5414406 0.691295 0.6991743 0.68276656 0.1765635 0.52669257 0.6439394 0.6749187 0.5314792 0.4261328 -0.05589911 0.4411 0.6012095 0.61840665 -0.269077 0.33193856 0.5604454 0.56421745 0.7078011 0.7767051 0.4154475 0.77982914 0.2813983 0.7116033 0.37217554 0.62923884 0.37897462 0.26543468 0.40272415 0.39019027 -0.0029317066 0.429618 -0.035161152 0.4395591 0.024418904 -0.032046232 0.47421882 0.052988753 0.4060787 0.13863094 -0.09619489 0.16946793 0.23359269 0.30101445 0.37674588 0.10719746 -0.045532167 0.6077783 0.57056594 0.72246516 0.6570177 0.5511131 0.2823556 0.055434577 0.6511698 0.7272961 0.67644864 0.550793 -0.055541486 0.73002636 0.6909795 0.61135364 0.5393678 0.38089648 0.24823998 0.3147905 0.49381533 0.68062085 0.73914015 0.5553006 0.5592034 0.5687169 0.45120677 0.3515498 0.4426431 0.23279442 0.29991612 0.33882508 0.59809685 0.57152754 0.5072336 0.44119465 0.44592547 0.46353936 0.3640454 0.4789278 0.5875209 0.40445322 0.3819189 0.57978773 0.5904367 0.53546834 0.46881503 0.24985196 0.20784342 0.20740037 0.20969142 0.16639787 0.08350927 0.035019163 0.11844508 0.20068827 0.3150615 0.47046077 0.66475594 0.68573546 0.67202544 0.6396773 0.14098473 0.3688475 0.46329013 0.6248387 0.6271937 -0.017813627 0.6094084 -0.36260206 0.3533552 0.5866784 0.6661655 0.6744938 0.56110203 0.75080615 0.7818071 0.79533124 0.35909522 0.74811 0.3979562 0.5762129 0.7071851 0.4166613 0.41370848 0.16904509 0.19170383 -0.082852826 -0.085198715 -0.10813914 0.36324966 0.1667159 0.16815051 0.2546722 -0.24850002 0.20749551 0.19904616 0.28910002 0.2623074 0.6261433 0.48831123 0.43443948 0.33329576 0.06836034 0.040563673 0.036301658 0.652583 0.51165175 0.4776681 0.44974524 0.40098166 0.14280671 0.16960865 0.18515185 0.2386568 0.5630614 0.6465583 0.50375444 0.46877125 0.4013178 0.37104046 0.32949466 0.11456711 0.28912148 0.36869848 0.37408963 0.33731845 0.37149438 0.23946622 0.24743637 0.3904814 0.52017236 0.5428905 0.4107369 0.30868965 0.3506876 0.34223935 0.29635286 0.24505034 0.2171289 0.26077792 0.2129894 0.19394742 0.18916681 -0.080803744 -0.20177886 0.019194784 0.204845 0.19839841 0.6389891 -0.11978314 0.29578286 0.3800227 0.5895951 0.61126393 0.4994283 -0.08390552 0.33827662 0.58765453 0.57210547 0.5160201 -0.2522005 -0.06046903 0.29733312 0.52475166 0.5123921 0.19194776 0.51713824 0.62694955 0.68294257 0.729919 0.30701396 0.42522603 0.6955229 0.76872045 0.3950491 0.3867663 0.473392 0.6835712 0.40450972 0.38704437 0.33619285 0.11960414 -0.019894928 -0.019694777 -0.08164329 0.110824674 0.19105077 0.16757359 0.23307133 0.29085326 0.12558976 0.37314695 0.36352992 0.2878284 -0.27106673 0.49628323 0.509264 0.48050112 0.4432489 0.28888172 0.26298028 0.5813674 0.56516176 0.57702595 -0.031123906 0.29608718 -0.0074256808 -0.07076923 0.088315815 0.31629196 0.52824223 0.13799217 0.35244358 0.27826053 0.23364514 0.254273 0.3663743 0.36368337 0.17280102 0.157523 0.122794166 0.09108031 0.41019577 0.29868957 0.16943519 0.2607676 0.36127508 0.34935826 0.31227893 0.26417232 0.23598918 0.35690725 0.27058458 0.2571134 0.26405552 0.27049637 0.3795443 0.32979554 0.27694184 -0.020460397 0.2909141 0.3082111 0.29069266 0.4622085 0.37067497 0.2491683 -0.2866471 -0.33794913 -0.35849953 0.2087853 0.14519933 -0.0839189 0.15277267 0.21495749 0.16468532 0.5809249 0.25413916 0.29652846 0.35879052 0.3263045 -0.48206308 0.38685107 0.36840606 0.13017203 0.28695998 0.37241176 0.33696926 0.25208315 0.29485312 0.21638918 0.26596394 0.10474631 0.2094182 -0.25500852 0.20390657 0.19058555 0.13980076 0.25825644 0.3561474 0.31791487 0.26374397 0.2265225 0.41370487 0.4182258 0.2543759 0.19383061 0.043486655 0.42608726 0.526108 0.55349934 0.47467792 0.23567556 0.17926858 -0.121105015 0.4085199 0.53598285 0.58005404 0.56369096 -0.036142692 0.550194 0.12718314 0.018846452 -0.12238091 0.18524614 0.22473918 0.15042275 0.32044584 0.2602846 0.027695391 0.350317 -0.04364716 0.11774522 0.10324778 0.05866922 0.20453595 0.17852879 0.3242181 0.4139579 0.44302395 0.3744584 0.2619575 0.4316941 0.4555369 0.3594203 0.31520906 0.20857209 0.3465774 0.36485535 0.25855285 0.2759893 0.53187823 0.4250116 0.40855235 0.22854604 -0.08050826 0.34198827 0.3379629 0.48241633 0.50918454 0.5196367 -0.060456604 -0.17078604 0.31364524 0.10738512 0.21700764 0.03976494 0.06586284 -0.07019441 0.18507135 0.14898016 0.21572548 0.008056596 0.29688418 0.27394775 0.324685 0.114926286 0.32184935 0.3331062 0.33817503 0.29062343 0.19867149 0.30461496 0.065466866 0.28189927 -0.018493026 0.23370442 0.22913311 0.096115276 0.23676816 0.15795211 0.32163322 0.373246 0.35008734 0.09705948 0.45207697 -0.11318738 0.53370315 0.4825626 0.20150262 -0.33152264 -0.063384056 0.008562215 0.4891265 0.5286997 0.5354801 0.17140014 -0.19798696 0.23207727 0.034532093 0.28355724 0.09861979 0.058816917 0.17627123 0.15750173 0.22614388 0.26145056 0.38927767 0.40151474 0.36747053 0.40835834 0.4438007 0.4306762 0.42953837 0.4240693 0.3650494 0.3016109 0.1617882 0.23524919 0.5063299 0.53683835 0.5304824 0.19062217 0.3042381 0.49084312 0.50692344 0.04115063 0.27771658 0.2631216 0.45339808 0.13603301 0.31556696 0.3684841 0.06110404 0.16894129 -0.13038169 -0.05838937 -0.018347844 0.1082973 0.039842375 0.2534321 0.26997966 0.22408825 0.20039988 0.13642578 -0.06480546 0.28147906 0.33745414 0.2831808 0.31994206 0.3409211 0.32468608 0.2374353 0.17851952 0.27681628 0.23724562 0.13496739 0.21707478 0.20040566 0.20724346 0.1929763 0.29023778 0.08917886 0.34842715 0.43891472 0.39277068 0.1070586 0.43563414 0.43306002 0.24956676 0.10611467 0.44743818 0.4460438 0.25994644 -0.11662586 -0.0024718344 0.24691087 0.24895692 -0.09689112 -0.04955609 0.2438584 0.29645112 0.025999174 -0.05576391 0.2537511 0.20923537 0.04427597 0.19177485 0.11778705 0.22667256 0.2451151 0.30513597 0.17011884 0.09365122 0.38624895 0.4330716 0.4539227 0.447958 0.4244774 0.43919975 0.4379872 0.35927314 0.35689002 0.19059205 0.48475713 0.49436224 0.44015574 0.26706827 0.282435 0.47168908 0.48608202 -0.2575379 0.27440733 0.43080336 0.03592729 0.25140905 -0.12326451 0.07389143 0.26377183 0.31664976 -0.05318714 0.24916235 0.115774676 0.08742817 0.052013606 0.31419548 0.23550126 0.023005858 0.3836941 0.12241336 0.40033168 0.44242206 0.17728917 0.26238763 0.4388494 0.26529098 0.38460672 0.28886387 0.08968474 0.20942527 0.19324476 0.19032203 0.25072417 0.21973974 0.29567176 0.38467288 0.14078623 0.43754047 0.42569765 0.26434267 0.25771552 0.2627934 0.28903002 0.26876867 0.27012736 -0.14260708 -0.13872509 -0.058320165 0.24663109 -0.11452539 -0.13695768 -0.051066022 0.32582688 0.14314476 0.4138188 0.23705246 0.34406424 0.4310649 0.43158507 0.433986 0.063204594 0.07872403 0.062102318 0.46769968 0.5644384 0.5753958 0.5870461 0.35573944 0.08043992 0.10396504 0.15861925 0.63990045 0.29373613 0.2628609 0.16186875 0.36862752 0.13938355 0.4637915 0.4605695 0.4085375 0.31704262 0.28854063 0.23477352 0.3138216 0.39971656 0.45184642 0.46431655 0.240172 0.44178373 0.439555 0.40286213 0.34214002 0.15702425 0.5554757 0.4445877 0.3581645 0.45336932 0.38462836 0.4226879 0.1450791 0.15398064 0.35295767 0.011036353 0.22169176 -0.4379015 0.05691748 0.04734563 -0.011872627 0.0042749867 0.2565912 0.35444444 0.22411332 0.48430637 0.44592586 0.38472202 0.51078755 0.37329337 0.5285877 0.44725966 0.16821963 0.26260132 0.2781191 -0.39683586 0.118748605 0.28338498 -0.10532415 0.28687918 0.39290762 0.17543034 0.428847 0.14717458 0.45368057 0.23045656 0.38575965 0.43611288 0.24019818 0.27046835 0.37091213 0.2589992 -0.08553964 0.40759936 0.20248088 0.48464233 0.15731764 0.45707002 0.55367404 0.4999196 0.5130392 0.46863967 0.080792576 0.14338765 0.63574517 0.6348777 0.6477659 0.5157424 0.500147 0.15965126 0.1286703 0.5794698 0.66478604 0.6881813 0.69398654 0.5095544 0.4795985 0.38254926 0.1804749 0.17783636 0.191396 0.17957447 0.7287244 0.7454264 0.21933973 0.22680655 0.16027352 0.17817333 0.21676697 0.46725255 0.4533952 0.33260363 0.26647684 0.27766046 0.33410645 0.4558943 0.45108587 0.43352228 0.3411001 0.29556626 0.27463955 0.45386943 0.60081494 0.6601207 0.31091386 0.4175128 0.6010005 0.34539205 0.1839863 0.027659908 0.33504814 0.3539629 0.19951805 0.13372341 0.24465509 0.23261768 0.11915441 0.087310776 -0.1456016 0.12610053 0.031043138 0.11857483 0.23184623 0.44254422 0.2998745 0.33546257 0.3884691 0.48982823 0.44992554 0.5282812 0.50133723 0.4688357 0.54121614 0.51430035 0.2586004 0.44133237 0.48642445 0.24594398 0.10087231 0.04150552 -0.010664366 0.300866 -0.7658534 -0.5206238 0.31568602 -0.023546934 -0.24132964 -0.255759 0.29562086 0.23173757 -0.015023962 -0.18577546 0.3279261 -0.2010951 0.40061104 0.18245079 0.39550313 0.41966435 0.25737676 0.24481755 0.38060468 0.2719919 -0.05227019 -0.08330602 0.29515034 0.24948728 0.049792796 -0.25757006 0.13240977 0.28074494 0.010452658 0.18869579 0.5593444 0.56870306 0.5935568 0.55770886 0.56628895 0.68723536 0.5401314 0.54631734 0.66429496 0.7421562 0.71406615 0.5421425 0.24591018 0.7445705 0.7584758 0.7586535 0.39380825 0.24327832 0.28830397 0.23099871 0.34990436 0.33994985 0.33465746 0.37473404 0.5348697 0.5917569 0.42675585 0.40373385 0.31900126 0.25316167 0.25035805 0.27423072 0.38313597 0.49422294 0.63487905 0.69159925 0.388735 0.3375003 0.29966924 0.67105365 0.6