# vtk DataFile Version 2.0
Really cool data
ASCII
DATASET POLYDATA
POINTS 7912 float
28.410242 55.920826 3.6329458
28.428705 56.43951 3.6473188
28.433317 56.347633 4.2439127
29.25383 55.03828 2.8557038
28.95648 55.11308 3.6737595
29.025568 55.147343 4.2704268
29.113617 55.88998 2.184711
28.893198 55.742584 2.6077585
28.62166 55.567223 3.5740955
28.636072 55.660297 4.357588
29.012024 55.713158 5.006665
28.980528 56.46723 2.2388694
28.671352 56.55667 2.695057
28.500402 56.80159 3.3239279
28.498236 56.40356 4.527237
28.81924 56.747604 5.3800178
29.263596 56.69001 6.314915
29.200567 56.92656 2.0366282
28.875477 57.210793 2.7013304
28.642044 57.342632 3.4918299
28.64615 57.192715 4.2560663
28.90877 57.342358 5.4252234
29.19502 57.370655 6.3867273
29.094769 58.214165 3.0009
29.014885 58.061913 3.4380462
29.078005 58.28083 4.484425
29.1876 58.10926 5.1251607
29.391138 58.14152 6.52594
29.252642 58.889168 3.601116
29.2483 58.801983 4.589211
29.99151 54.363842 3.656928
30.179628 54.303375 4.127727
29.789255 55.207756 2.1437392
29.685898 54.872814 2.700743
29.657354 54.620148 3.4525542
29.51181 54.724506 4.200973
29.970919 55.092716 5.0498137
30.400665 55.21799 13.570291
30.33276 55.2365 14.075306
29.71257 55.670006 1.9112585
29.407417 55.836452 5.440939
30.195677 56.114094 6.995225
30.191969 55.865986 13.223934
30.085207 55.74807 13.793251
30.143513 55.726875 14.296609
30.2762 55.931637 14.8266115
29.627325 56.310314 1.7478466
29.437843 56.652893 6.553865
29.770859 56.771152 7.128999
30.309135 56.535927 13.120425
30.007248 56.39069 13.733279
30.035248 56.39369 14.397022
30.270685 56.532158 14.923308
29.551899 57.61114 2.0512648
29.442884 57.76024 6.716037
29.67535 57.383926 7.135691
30.227215 57.12653 13.8157425
30.181332 57.143135 14.334196
30.370777 57.24503 14.931917
29.973194 58.34575 2.1633093
29.498116 58.38926 2.668527
29.468588 58.148006 6.679683
29.786057 58.2473 7.038431
29.713694 59.02691 2.6115563
29.742943 58.73291 5.848539
30.081604 59.20521 6.100812
30.239517 60.219666 2.8817303
29.995577 59.876575 3.5370204
30.390753 61.099075 6.3331575
30.355541 61.820457 5.5491967
30.330303 61.264206 6.071647
30.29774 61.922707 7.7395673
30.349371 61.92888 8.302855
30.295078 62.48412 5.610348
30.206497 62.532677 6.427867
30.267443 62.45603 7.7287407
30.33982 62.509533 8.285323
30.35212 63.16034 5.758662
30.384884 63.149273 6.493114
30.358051 62.915676 7.3861575
30.354404 62.984367 8.107727
30.8961 54.318855 2.6767416
30.787758 54.105885 3.6886232
30.87249 54.392483 4.5794573
31.364029 54.26165 7.5052114
31.383392 53.78212 12.720056
31.196293 54.190422 13.611878
30.47959 55.147633 2.0978692
30.4608 54.541065 2.579834
31.296076 54.461693 7.0538225
30.803234 54.944515 12.974665
30.921783 54.516174 13.365536
30.766077 54.91364 14.432266
30.811117 55.03407 14.744888
30.570362 55.668262 1.7520615
30.724709 55.57972 6.7723513
31.108223 55.656757 8.320227
30.53852 55.480606 12.982445
30.594032 55.75609 15.023184
31.137226 57.130455 1.1135414
30.207285 56.42166 1.5847645
30.86887 56.682384 7.9956837
30.417646 56.392673 13.033567
30.64502 56.564526 15.389918
31.367863 58.03521 -0.17902316
31.168331 57.607132 0.44995832
30.663563 57.290928 1.4949404
30.948252 57.172787 8.264277
31.300287 57.520546 8.643196
30.77421 56.885372 12.985411
30.594757 57.38262 13.509575
30.423792 57.577023 14.323082
30.725748 57.620575 15.347449
31.11034 57.51659 15.899687
31.293592 58.426735 -0.30229914
31.136795 58.474766 0.28927702
30.366571 58.356438 7.5388494
30.496893 58.159332 7.8634005
30.847212 57.697994 13.60358
30.786436 58.1929 14.66519
31.01641 58.30872 15.356478
31.15457 58.167664 15.792069
31.264006 59.14161 -0.3075856
31.073685 59.137062 0.23102205
30.77997 59.620724 1.4251007
30.630653 59.158497 7.180507
31.234213 59.25519 8.298209
31.086515 58.678772 14.580463
31.243755 59.88463 0.46843994
30.948362 60.29923 1.6185298
30.57552 60.550064 2.613637
30.425556 60.430557 3.344588
30.440031 60.036106 4.5875754
30.769436 60.876694 8.345426
31.201569 60.840157 1.9614424
30.990725 60.991833 2.5697088
30.556185 60.755844 3.179774
30.534073 61.61614 5.1583467
30.48539 61.205006 5.589828
30.494656 61.40177 7.5315475
30.60663 61.52009 8.625251
30.752808 61.83768 9.017114
30.666134 62.717255 4.89125
30.447 62.658768 5.296091
30.489939 62.736984 8.586076
30.708597 62.400726 9.05994
30.821009 63.33789 5.063339
30.615631 63.442585 5.5092063
30.564487 63.517563 6.456874
30.622593 63.447037 7.473153
30.632717 63.178967 8.470675
30.810568 63.03537 8.912678
30.890745 63.795265 5.6628613
30.965527 63.941296 6.579437
30.998167 63.85509 7.5365877
31.156872 63.788895 8.291742
32.202248 49.145348 7.9586496
32.08028 48.78176 8.780712
32.08763 48.809162 9.514989
32.165325 48.912548 10.092464
31.978107 49.584736 8.044486
31.748125 49.48497 8.768652
31.833685 49.47187 9.512844
31.972145 49.54485 10.098295
32.031616 50.202026 7.9402223
31.775303 50.223095 8.612808
31.766073 50.44894 9.345375
32.00881 50.59407 10.343131
32.372353 50.743347 12.098053
32.12259 50.85791 8.50426
32.006435 51.23432 9.583772
32.181942 51.605026 10.265328
32.208057 51.686367 11.635447
32.143845 51.491398 12.626805
32.19865 51.772743 13.395271
32.352375 52.69749 7.1808643
31.947863 53.147335 7.598802
32.00025 52.615475 11.4191675
31.741243 52.72454 12.745753
31.784254 52.6431 13.482223
31.916752 52.921165 14.235485
32.216293 53.092266 14.699741
31.594202 54.135807 3.0766072
31.230125 54.053303 3.4254384
31.199846 54.326855 4.506722
31.83812 54.210155 5.2560964
31.713825 53.903294 6.8336034
31.687168 54.19094 8.785822
32.17171 53.615955 9.225087
32.20789 53.982914 10.405221
31.537523 53.750202 11.694858
31.583736 53.367203 12.686133
31.46449 53.379734 13.802139
31.695232 53.3732 14.252958
31.95241 53.947304 14.8193035
31.340199 54.850925 2.1655612
31.624151 54.726643 8.964446
31.523361 54.69734 11.432241
31.484734 54.226254 12.33598
31.412857 54.471424 14.519942
31.50705 55.175266 15.335453
32.18668 55.12921 9.907638
31.67237 55.430676 11.693902
31.401196 55.473072 15.491403
31.641762 55.832905 15.757445
31.884483 57.238216 -0.199484
31.349493 56.764736 1.0835626
31.832397 56.54189 9.006921
32.01143 56.408802 12.067258
31.533693 56.67264 16.019922
32.092285 57.901688 -0.9807509
31.627373 57.686924 -0.32821283
31.504679 57.44439 0.40579754
31.565659 57.638557 16.194105
31.876724 58.404278 -1.008243
32.27883 58.71428 9.510387
31.582012 58.395584 13.808114
31.723513 58.403015 16.04559
31.979668 59.45699 -1.1357847
31.588923 59.63833 -0.556703
31.708414 59.17463 14.643254
31.46364 58.926365 15.35313
31.66139 58.813183 15.79211
32.079826 60.03556 -1.0190473
31.992956 60.33645 -0.5337103
31.582327 60.474277 0.6527988
31.841854 60.716465 9.423692
32.36263 60.990463 11.633226
32.41318 61.084686 12.480692
32.426216 60.720036 13.233002
32.307804 60.96997 14.317288
32.405754 60.738945 15.011096
32.186714 60.60998 -0.36093333
31.872498 60.63672 0.4941075
31.563047 60.982807 1.8417011
31.487028 61.24978 2.7274673
32.083122 61.540394 10.152293
32.389202 61.69512 11.700156
32.338036 61.36915 12.499085
32.343964 61.30237 13.611462
32.31917 61.518784 14.594084
32.41123 61.603977 15.027793
31.87327 62.724396 4.2033153
31.358046 62.70021 9.513688
31.639437 62.377068 9.738749
32.42626 62.116695 13.42521
32.454647 62.091633 14.233212
31.59539 63.309788 4.6695013
31.462128 63.42466 9.1368885
31.441553 63.7411 5.099282
31.43687 64.0192 5.6080236
31.611044 64.1962 6.5615745
31.716188 64.23727 7.4652286
31.685638 64.036385 8.353682
31.850557 63.7849 8.896972
33.311237 45.184578 5.4663315
33.316948 45.300514 6.2217007
33.254692 46.050304 3.872706
33.122902 45.78965 4.8168693
33.022503 45.61891 5.7089324
33.02894 45.686516 6.2199974
33.248978 46.80251 3.1360216
33.195248 46.516655 3.549534
32.96983 46.451946 4.544039
32.780457 46.517334 5.618375
32.81489 46.421505 6.279582
33.06053 46.43051 6.9576964
33.301266 47.110764 3.1420991
33.19876 47.227688 3.6244502
33.039307 47.16987 4.725762
32.94564 47.15829 5.451241
32.993084 47.224182 6.278605
33.1569 47.3003 7.095798
32.970654 48.014133 8.649754
32.573086 48.26289 9.518096
32.822895 48.335518 10.28579
33.0283 48.53484 6.6863885
32.678654 48.708435 7.6632757
32.409466 48.424107 9.650305
32.64592 48.58913 10.373563
32.995014 48.790565 10.8740835
32.477673 49.356747 7.479347
32.399452 49.340755 10.673922
32.85795 49.623173 11.254207
33.2933 50.19868 13.663941
32.633533 50.053463 7.2062078
32.405083 50.194714 7.5379114
32.536552 50.484806 11.674129
32.463383 50.79388 12.638993
32.995487 50.559788 13.417535
33.129055 51.0654 14.173378
32.952724 51.718628 7.2097898
32.425877 51.672504 13.64381
32.83342 51.917374 14.340033
32.870274 52.64447 6.761099
32.55069 52.200714 7.4986086
32.42194 52.60263 14.49761
32.925064 52.725098 14.8710985
32.680897 53.80263 6.014144
32.453735 53.545826 14.931704
32.31057 54.88675 2.43377
32.59373 54.34844 15.199103
32.51571 55.062435 15.723133
32.34754 55.814785 16.059404
33.33223 56.58924 -1.0967708
32.648487 57.23949 -0.6696067
32.543137 56.701927 0.37038904
33.06792 56.436092 10.03456
32.65951 58.095604 -1.6345782
32.664444 57.56333 -1.1598824
32.536793 57.37402 9.315879
33.26644 57.855984 12.208415
32.87271 57.62769 12.621002
32.347347 57.51469 16.449501
32.746258 57.23274 16.593113
32.88287 58.37074 -1.7111441
32.507797 58.510113 -1.5255704
32.795174 58.35029 9.600961
32.689438 58.15163 12.98858
32.326412 58.354813 16.293573
32.711315 59.15841 -1.6718683
32.466263 59.57445 -1.4072369
32.649345 59.031914 15.954618
32.597996 60.30105 -1.0478241
32.307976 60.541267 -0.58490276
32.681908 60.66611 10.757109
32.85264 60.428238 11.032737
32.68656 60.262985 12.649184
32.51845 60.72569 13.0737705
32.486797 60.128536 15.009485
32.997215 61.08928 15.816388
32.898117 60.661148 -0.77983147
32.735836 60.778206 -0.34258768
32.62185 61.000725 0.49132973
32.898857 61.36327 1.3547807
32.52428 61.26883 13.351984
32.590614 61.540478 15.307884
33.07755 61.558685 15.849506
32.751534 62.476624 4.2184205
32.52931 62.56501 10.294743
32.52698 62.301613 12.749754
[...]
POINT_DATA 7912
SCALARS features_00 float 1
LOOKUP_TABLE default
0.68907094 0.6493342 0.62244725 0.702901 0.69900185 0.6554148 0.64248693 0.7025249 0.7077959 0.6494885 0.575674 0.6117786 0.6410601 0.6163993 0.5963067 0.4875527 0.38815594 0.5320525 0.55596507 0.54604876 0.5389551 0.4416029 0.3757394 0.44048733 0.45672977 0.4188329 0.3982713 0.33785427 0.36560258 0.35015303 0.60265344 0.5510923 0.61364233 0.66744536 0.65092987 0.6210458 0.50690436 0.5471157 0.5739872 0.5576276 0.49069935 0.31555426 0.61767495 0.6491146 0.6580349 0.67276436 0.4961753 0.36586967 0.3340636 0.65911376 0.71039 0.72673154 0.71629107 0.44448298 0.34221214 0.3237539 0.7063836 0.712318 0.6909082 0.35853076 0.4016865 0.33063084 0.30176502 0.32715183 0.30180258 0.21225864 0.26576853 0.25761914 0.35247552 0.4551795 0.38240936 0.48776752 0.4856104 0.5508734 0.5374858 0.5282314 0.5317041 0.62654066 0.6006928 0.56499296 0.5643325 0.57483244 0.5219807 0.44096476 0.17519042 0.2757907 0.37635633 0.5518989 0.6099087 0.16180192 0.4174949 0.4037727 0.495051 0.49667063 0.4425655 0.24061444 0.20162085 0.50981575 0.6161582 0.16731128 0.3919582 0.25175688 0.6295903 0.6755644 0.34070647 0.20481603 0.24949831 0.22229272 0.14942014 0.58616245 0.649525 0.6706625 0.6394686 0.61055744 0.43207335 0.36954752 0.23976439 0.2225989 0.6102635 0.6029197 0.56976604 0.5654525 0.5677974 0.50055534 0.31066614 0.16736463 0.069639675 0.5370128 0.501954 0.31559157 0.27194247 0.22098297 0.067766264 0.31369203 0.31728977 0.26791996 0.21692282 0.36694023 0.3226828 0.431898 0.42878366 0.45327362 0.61236227 0.5885006 0.5430486 0.50904226 0.68592083 0.67377806 0.63835645 0.6041589 0.57396567 0.5596355 0.6940665 0.6610758 0.62133825 0.60412 0.40653795 0.50069493 0.46608174 0.41510007 0.40928644 0.5214423 0.50564796 0.43742585 0.33170465 0.47618932 0.50386804 0.35923642 0.18021601 0.35459876 0.36571407 0.17663094 0.16276892 0.22126031 0.25611746 0.060506582 0.10396336 0.11413433 0.27555367 0.3046253 0.29178286 0.25758907 0.4696874 0.49327302 0.40216452 0.04961638 0.077336445 0.13406298 0.021678936 -0.08360368 0.15746094 0.2676208 0.33097324 0.3154016 0.29313335 0.5088047 0.11593344 0.15835945 0.2471942 0.38648468 0.39690208 -0.023596004 0.2717321 0.44651973 0.45543534 0.23331705 0.13230814 0.08972822 0.2385185 0.5763467 0.40926227 0.3030583 0.1906964 0.5545734 0.50262713 -0.059810918 0.52361166 0.48329037 0.6136346 0.60461533 0.3642708 0.46482632 0.45597595 0.5816116 0.55716777 0.46474302 0.10956848 0.15113705 0.24661525 0.2783966 0.33754808 0.34978664 0.53491646 0.4797023 0.33107036 0.23223495 0.20510663 0.22805567 0.2726289 0.35886604 0.42954856 0.47935438 0.55558205 0.5138451 0.4555199 0.41529623 0.47096124 0.6598635 0.5600444 0.6896037 0.6943503 0.6522356 0.5908414 0.57137024 0.5340248 0.6436085 0.620113 0.70793056 0.674247 0.64381707 0.6120858 0.7116856 0.71951413 0.6746975 0.5806136 0.54964393 0.49947798 0.6945644 0.67993045 0.60731256 0.5077029 0.414828 0.3443191 0.37816307 0.39888042 0.31736666 0.1837577 0.33120665 0.41321063 0.344783 0.2635452 0.28034228 0.35869604 0.23503469 0.25408846 0.1563154 0.21822706 0.19534 0.1862247 0.22744286 0.23517448 0.018847123 0.24942257 0.23592968 0.012832299 0.048148125 0.25202703 0.19886377 -0.082143426 0.22317941 0.35850048 0.20114408 0.23490727 0.34410566 0.24900961 0.28730094 0.12297536 -0.15079966 0.4728787 0.36870342 -0.06606601 -0.29934567 0.011818179 0.451081 0.40381098 0.5141411 0.5405989 -0.1359973 0.12541701 0.39211315 0.59112906 0.59866107 0.26690805 0.55802464 0.5438383 0.01512818 0.010909647 0.14899403 0.2670022 0.272179 0.4447048 0.5257095 0.5075139 0.4653501 0.40115377 0.34727356 0.50037336 0.5212326 0.4033705 0.30683073 0.38598984 0.40097064 0.54202986 0.5802214 0.5846444 0.47539675 0.57515776 0.17834148 0.35976762 0.46615803 0.5634655 0.59230924 0.63017875 0.5929285 0.5590023 0.4766332 0.48418438 0.45186597 0.54065466 0.6259204 0.6048186 0.5853966 0.58821726 0.48215497 0.6927086 0.6969329 0.66071683 0.46207783 0.3353876 0.6544263 0.68878615 0.256026 0.6443659 0.65713066 0.6161718 0.16920944 0.17295134 0.8609383 0.57955307 0.52774495 0.32346252 0.19639993 0.2361716 0.26626563 -0.010928258 0.041172322 0.2642451 0.2729706 -0.06079875 0.0006371066 0.24812761 0.2252051 0.6501074 0.61917543 0.5660417 -0.041164517 0.18267883 0.67693245 0.6833886 0.646304 0.561253 0.2714209 0.2855081 0.286097 -0.1088317 0.17585011 0.6570683 0.6845732 0.6841042 0.60680395 0.2334983 0.26718348 -0.24187702 -0.14919451 0.0058923196 0.64128965 0.64807475 0.6767893 0.23978189 0.102834836 0.22504002 -0.025960937 -0.15483429 0.11190102 0.5028276 0.030234078 0.02836297 0.21235755 0.23228489 0.32210946 0.22305557 0.26612127 0.41074407 -0.3930158 0.4918985 -0.28513208 -0.31117523 0.12975647 0.24578822 0.54984856 0.5688175 0.13305542 0.55929446 0.52597857 0.18917592 0.50307494 0.47406667 0.39691532 0.27851748 0.49730802 0.32113993 0.5766891 0.4581183 0.15070601 0.17058949 0.32223678 0.5457449 0.5729523 0.5647158 0.49837542 0.4316165 0.40562522 0.3819012 0.24863763 0.46138388 0.49083996 0.48342556 0.48278108 0.5720347 0.4969216 0.5214534 0.50724494 0.45246077 0.3344549 0.8921507 0.62136006 0.6261555 0.28078607 0.17551503 0.615523 0.66698945 0.8232509 0.93346393 0.9501617 0.6217764 0.6551193 0.060645554 0.57819444 0.6310533 0.84100723 0.9271613 0.9532958 0.5754883 0.5925298 0.053565323 -0.0070669567 0.14506482 0.18568063 0.21013361 0.5395513 0.63480663 0.68028355 0.835451 0.8927944 0.5228473 0.3435554 0.18832286 0.20661405 0.24195 0.48172265 0.512016 0.5901296 0.7257577 0.26140773 -0.09794558 0.43484056 0.48002058 -0.25969118 0.21424642 0.43317172 0.4229415 0.6115819 0.58950603 0.4921959 0.37293375 0.28077915 -0.1586529 0.15476787 0.09411982 0.43039876 0.5440631 0.50439394 0.3613832 0.65164524 0.6631553 0.3473618 0.29055306 0.28808153 -0.21928115 0.029804822 0.47818318 0.55633014 0.52772343 0.4808093 0.5773536 0.61977136 -0.26009616 -0.16776459 0.4545054 0.5033156 0.4843558 0.58964515 0.5741037 0.058905642 0.4411 0.5265824 0.0724383 0.23315161 0.1794846 0.22144526 0.1967142 0.42302874 0.10607155 0.06994964 0.47584265 0.016800852 0.5029878 0.4541707 0.41985616 0.12014894 0.4298212 0.31154698 0.19142622 0.12485188 0.12089149 0.41858453 0.2120495 0.51691777 0.25956956 0.13868365 0.4210644 0.4774679 0.4851684 0.35863784 0.28164235 0.29676816 0.27260685 0.1748336 0.112002626 0.35017145 0.41603598 0.40745592 0.40022594 0.43252665 0.42822364 0.37709785 0.3972629 0.42333555 0.31269157 0.69835484 0.81891 0.88298273 0.8956199 0.39833125 0.48047063 0.19557902 0.12971796 0.023634512 0.5260245 0.665867 0.7939322 0.9197561 0.8970581 0.49901736 0.5423659 -0.0070309173 -0.0031385792 0.066248946 0.39259028 0.51669884 0.94490206 0.9172058 0.39292544 0.05224564 0.06784047 0.14729044 0.13461769 0.49486834 0.49263358 0.8875915 0.89932287 0.33039898 0.2950582 0.18739563 0.13368632 0.3087297 0.4371514 0.6625916 0.78261375 0.19990398 -0.026147563 0.20809641 0.11734455 0.17407012 0.24963379 0.3138835 0.29964513 0.46402064 0.45891336 0.4352624 -0.29855466 0.091049835 0.19653872 0.20831774 0.18747018 0.19333622 0.3043316 0.33831403 0.10853054 0.52973914 0.5407996 0.507648 0.21310902 0.1780018 -0.37596175 -0.31973794 -0.10907726 0.20263839 0.21187752 0.19357845 0.29377043 0.32486123 0.15885541 0.10476257 0.58058524 0.108746506 0.14778951 0.16668263 0.27781737 0.40017372 0.23437318 0.19883187 0.55479795 0.57931 0.04897511 -0.14066942 -0.27662802 0.2412108 0.41221312 0.37238237 0.5309463 0.5497136 -0.22698604 0.41800633 0.41587836 0.33032733 0.48425943 -0.101049654 0.016704284 0.3410355 0.34364778 0.087199524 0.33783495 0.417022 0.4851989 0.5650933 0.056362927 0.52906895 0.580918 0.6380447 0.6248764 -0.080715016 0.5514935 0.6400628 0.67619383 0.6439388 0.61679655 0.41790083 0.3706742 0.29969186 0.16240884 -0.0041992143 -0.072133526 0.54506284 0.60653377 0.6615184 0.64683276 0.14235878 -0.15080605 -0.18978457 -0.00015171617 0.014074951 0.019555286 0.07102936 0.10827015 0.3290028 0.19694221 0.13056631 0.13929626 0.15553215 0.04282311 0.12312015 0.11963636 0.20492047 0.3404304 0.33523166 0.33027506 0.33656234 0.35000336 0.34435672 0.6840534 0.7831613 0.83738554 0.8514695 0.3213503 0.24185947 0.12441482 0.035596814 0.8475298 0.85164595 0.44245833 0.40643576 0.032255094 0.08108877 0.14425533 0.17688772 0.21495408 0.29811472 0.32894245 0.8352339 0.38204318 0.16159202 0.2035025 0.8000523 0.2254345 0.09274798 0.14488325 0.070488736 0.2686848 0.7751157 -0.07994641 0.06434688 0.15585525 0.12724903 0.112020865 0.07230653 0.13578998 0.40399587 0.41311443 0.37576744 0.26217535 -0.22600813 -0.2769866 0.092020065 0.18227956 0.17531961 0.07210122 0.48028097 0.44876713 0.03463836 -0.044014737 -0.15426421 -0.3210036 0.02385357 0.45333734 0.4769748 0.5212529 -0.1097409 0.04271424 0.4977941 0.5026216 -0.018894553 0.0051369965 0.021991305 0.20214058 0.24397656 0.328179 0.49715695 -0.27599356 -0.23041351 -0.0986401 -0.06651674 -0.03987952 0.09672803 0.30739388 0.28005165 0.22446008 0.18269472 0.1968216 0.311445 0.4949862 0.42304176 -0.30937183 -0.06505804 -0.040857516 -0.045288786 0.008580387 0.14552481 0.36451623 0.2151656 0.03073445 0.099080086 0.08942242 0.22714107 0.34844458 -0.10662937 0.12123227 0.11583215 0.18668005 0.33504114 0.5770319 0.57873976 0.297838 0.21254352 0.62348187 0.5988378 0.0053876936 0.3309727 0.46142632 0.56272346 0.6452488 0.62910295 0.59920627 -0.13090512 0.007981768 0.4983544 0.59047884 0.1633133 0.016211562 0.14768226 -0.028533682 -0.053129703 -0.04682362 0.13206354 0.09838006 -0.11575598 0.076174915 0.08841111 0.04588647 -0.01584791 -0.011829643 0.019109719 0.2224842 0.2846809 0.34572673 0.3496207 0.32354927 0.32695675 0.29730994 0.31522954 0.32359648 0.3166399 0.2701047 0.5266184 0.6488016 0.7597728 0.81343555 0.5316514 0.5066698 0.44340363 0.31293884 0.18417199 0.16917318 0.10631222 0.101968415 0.1520127 0.24018548 0.25243568 0.37790248 0.44919938 0.70134103 0.76315606 0.47511482 0.48501068 0.06776874 0.06434061 0.13772495 0.2400814 0.23289424 0.21867298 0.16893317 0.15258208 0.2534223 0.7238309 0.78104544 0.40605164 0.2018654 0.110522315 0.15733606 0.20095363 0.6555114 0.7282473 0.3347854 0.10617596 0.09233934 -0.067969754 0.016030692 -0.055401355 -0.11917441 -0.08534054 0.55329686 -0.04633549 -0.004665628 0.057288498 0.37096214 0.29064727 0.12211311 -0.09134118 -0.12618059 0.11840348 0.426411 0.59910035 0.4542985 0.4170187 0.6556432 0.6857852 0.7287331 0.40788049 0.67247665 0.72306836 0.41782105 -0.47417015 0.051162735 0.15899527 0.27546313 0.5409248 0.61632216 0.68706405 0.26915833 0.02393812 0.16011916 0.2715748 0.2970198 0.28660733 0.08573353 0.5047548 -0.24894062 -0.19375485 0.20030954 0.5372081 -0.20831998 0.29639065 0.37219846 0.53211045 0.5167723 -0.10182743 0.03301432 0.12231669 0.20363289 0.31639326 0.46963197 0.47260454 0.4519753 0.1030706 0.14629741 0.05400808 0.27325004 0.22988701 0.12493558 0.14764655 0.14626014 0.04051976 0.13722618 0.10447818 0.2593394 0.26171392 0.12710151 0.031870455 -0.0013012141 -0.11098987 -0.12140323 0.26766253 -0.13648222 -0.09402389 -0.038752347 0.24282157 0.36110014 0.44688922 0.39126384 0.3405743 0.39271605 0.45707974 0.4831254 0.44673806 0.27179223 0.306827 0.30544886 0.2501629 0.25766578 0.26461992 0.552698 0.54398465 0.4874035 0.21177885 0.25049478 0.19618429 0.1469714 0.2552156 0.22868559 0.18712462 0.11664759 0.20182733 0.27842942 0.42465886 0.40554816 0.4740258 0.53903276 0.47590896 0.52160674 0.1322939 -0.06889356 0.13977991 0.13997315 0.62667286 -0.09056192 -0.2023181 -0.24314666 -0.23365557 -0.07535286 0.48502332 0.3582713 -0.14150669 -0.16391054 0.14005731 0.033820227 0.010351568 0.071375474 0.26992357 0.20996797 0.12863047 -0.0064359456 0.348661 0.5858444 0.6194527 0.34863386 0.7476903 0.2754088 0.7349234 0.692055 0.22791177 0.11643302 -0.21547645 -0.16690305 0.3375756 0.5309059 0.3242351 -0.06750318 0.053836264 0.4354866 0.38887072 0.088823505 0.5141618 0.18509576 -0.12390239 -0.101669624 -0.2850571 0.3419313 0.27454624 0.32614875 -0.35677758 0.38862133 0.3038563 0.5343056 0.00041066855 0.22162506 0.34495765 0.37037933 0.3998797 0.35929644 0.06343223 0.22828662 0.29916704 0.3266003 0.06399168 0.08794847 0.12846957 0.27292973 0.31025356 0.31305683 0.11663229 0.12508641 0.024286829 0.009661088 0.2346936 0.18079041 0.021345384 -0.13537382 -0.15367788 -0.09437238 -0.036169946 0.42739874 0.3308615 0.38729736 0.4539841 0.49706274 0.49648562 0.4748369 0.49078506 0.29348093 0.28889892 0.2393431 0.25564116 0.27267945 0.27451733 0.26473603 0.19115126 0.14024797 0.15902555 0.5668504 0.54463685 0.43702462 0.28569192 0.22666803 0.26385486 0.2729689 0.19166695 0.17083487 0.24739945 0.23071523 0.11119292 0.05344352 0.19455278 0.14470784 0.11347395 -0.058577076 0.0071642585 0.025537316 0.10064201 0.17890283 0.25225532 0.2972644 0.5022926 0.54289514 0.015604768 -0.1264257 -0.035619967 -0.109002635 0.10689816 0.24279648 0.26039064 0.4504702 -0.12773986 -0.25034764 0.1935745 0.19677794 -0.008788981 0.13607904 -0.017682541 -0.034498118 0.05936233 0.088054664 0.20482796 0.053995147 0.63633746 0.1142202 0.7200421 0.08659762 0.7280272 0.6575552 0.34113342 0.17495139 0.22537535 0.30715817 0.45701623 0.33280835 0.17150488 0.23846129 0.55705106 0.5324565 0.26668948 0.3111889 0.50748086 0.24236932 0.30851346 0.46944383 0.31080896 0.21221778 -0.023591526 -0.23523772 0.09536287 0.4094119 0.39293915 0.048304826 0.26358414 0.55175537 0.57198864 0.4389523 0.29110342 0.3375553 0.57490015 0.6032439 0.5963377 0.5335576 0.035375036 0.25328338 0.27249652 0.31366023 0.5882637 0.025407404 0.034942597 0.0699321 0.23574854 0.29623342 0.280685 0.028017774 0.019343857 -0.008624215 0.21611394 0.08500576 0.27132815 0.11749841 0.13201126 0.09416885 0.021085659 -0.022515632 -0.033587493 0.3101681 0.14852765 0.14226839 0.1350398 0.12724599 0.36737752 0.48071086 0.3607965 0.44151694 0.48157215 0.36598614 0.3594014 0.30967665 0.31463838 0.34313565 0.28625 0.23875317 0.11389993 0.1334615 0.1260237 0.19417879 0.04287011 0.10409606 0.14176111 0.14895909 0.4895646 0.3800919 0.27237028 0.27092296 0.28626475 0.270891 0.23057646 0.17799121 0.1652076 0.2596326 0.04528451 0.07075341 0.13592914 0.10187253 0.02520907 0.11251992 0.5355586 0.42977333 0.3153926 0.2734461 0.14819789 0.12935227 -0.021451846 0.28456458 -0.10150999 0.044123948 -0.04696414 0.23626316 -0.05629189 0.10538319 0.21130547 0.024151713 0.00090307 -0.04414835 0.03012368 0.14462781 0.29922596 0.35886884 0.5329202 -0.049367346 0.6095333 -0.0022960082 0.6333941 0.2997857 0.21763772 0.31668955 0.45959976 0.32927942 0.56868243 0.36874992 0.40278286 0.55027425 0.5094236 0.3578578 0.45356017 0.45752338 0.48781282 0.4577803 0.38508958 0.4217396 0.46642214 0.21241131 0.19864017 0.42559397 0.5009486 0.2660097 0.5407045 0.58320045 0.055098265 0.1860274 0.25215632 0.5574273 0.5648123 0.5224553 0.46603793 0.017553957 0.01945982 0.19422902 0.1861125 0.18706258 0.04761275 0.031084066 0.038525157 0.07063826 -0.07527024 0.058557447 0.026798282 -0.0059342794 -0.024943098 0.15595233 0.1580889 0.17277545 0.1658681 0.14692613 0.1075133 0.0470275 -0.011509299 0.44164193 0.17254741 0.16898158 0.30320144 0.42875266 0.36050186 0.39719453 0.3803031 0.30084676 0.3083219 0.36657915 0.3910282 0.34147346 0.27033487 0.23843572 0.27929482 0.07327659 0.09532753 0.0897416 0.11720964 0.178892 0.272891 0.07717698 0.09415298 0.086150244 0.20503655 0.24753365 0.28841087 0.29600444 0.020804614 -0.12219358 -0.11198659 0.042822205 0.2917322 0.25850144 0.28925717 0.28872383 0.2677874 0.25384986 -0.029620081 0.0031108856 -0.0560496 0.21581069 0.11312212 0.21066767 0.092960835 -0.18122225 -0.03675516 0.14348364 0.18658635 0.15139468 0.012754891 -0.29499245 0.30648467 0.37847966 0.24899587 0.18457554 0.068708904 -0.5072773 0.2268405 0.18134266 0.13673083 -0.007751966 0.10862241 0.083312094 0.1478716 0.15259573 0.12067956 0.2425386 0.43294618 0.032502934 0.06897339 0.15987642 0.46645033 0.2991749 0.29976076 0.54380774 0.43450826 0.5258378 0.4529674 0.4749149 0.4435976 0.42252702 0.33027524 0.20821376 0.31213272 0.39562738 0.47050822 0.48670918 0.25224552 -0.14005959 -0.09499502 0.17276442 0.32064426 0.33871466 0.41207582 0.13768792 0.5125959 0.11256101 0.18225388 0.18739292 0.5352305 0.531831 0.4391935 0.24796262 -0.06429726 -0.226813 0.13660237 0.11338358 0.43986043 0.2584879 0.042899195 -0.10455726 0.042814016 -0.0004460076 0.1170606 0.07562501 0.107892156 0.16291326 0.011458613 0.33354348 0.21570435 0.15539505 0.15826042 0.16237673 0.13527718 0.10710587 0.07426656 -0.0011472688 -0.0072285086 0.19413972 0.2535351 0.33982515 0.38350445 0.37392277 0.30365357 0.29424864 0.33672333 0.081933595 0.019383188 0.084654 0.1652341 0.20064759 0.24432781 0.05707908 0.06766481 0.129152 0.21896446 0.27817345 0.054832496 0.11447549 0.28713825 0.20903003 0.17229927 -0.04010069 0.27275547 -0.020822361 0.12378791 0.19044618 0.49377048 0.114663705 0.19146235 0.22271757 0.24512675 0.10529642 -0.073926866 0.26510844 0.2858806 0.4196294 0.5331189 0.49507785 -0.07686549 -0.12192962 0.035391897 -0.21213067 -0.3084054 -0.4862595 -0.31007075 0.24433236 0.30158418 0.30818787 0.3258731 0.41983116 0.35948384 0.054089136 0.024808906 -0.023894556 -0.45314914 0.27158588 0.20599946 0.22735336 -0.08784858 -0.15108074 0.15081358 0.18158963 0.22411299 0.21016529 -0.17731878 -0.13044906 0.14621887 -0.030258395 0.036981 0.053604625 -0.010052465 0.15419878 0.13518457 0.2910205 0.20934965 0.41269588 0.46567136 0.36174226 0.4430035 0.3865131 0.3659817 0.20673567 0.42748237 0.46786284 -0.0041517466 -0.37841952 0.27959758 0.33024406 0.404876 0.41121137 0.06775582 0.4467262 0.4822054 0.074888945 0.5080199 0.4959343 0.15886405 -0.1748427 -0.013150625 0.34520918 0.1343482 0.041894592 -0.10673649 -0.07643441 -0.18780334 -0.052059162 0.041706834 -0.09065302 0.120563835 0.21732938 0.23128581 0.085206784 0.078692436 0.040489964 0.009957461 0.060688786 0.09019953 0.14107555 0.20423952 0.24095908 0.2471548 0.24981855 0.23927024 0.18606582 0.3205675 0.26511344 0.24769506 0.28773713 0.3346082 0.27568972 0.093568295 0.1149458 0.15300266 0.1678909 0.2166012 0.11792087 0.16060792 0.22847769 0.08674492 0.2540424 0.23891667 0.22481218 0.037865188 0.20336631 0.2247767 0.26975882 0.21099095 0.08625389 -0.1573839 0.18983077 0.13802798 0.27886063 0.2907557 0.46947238 0.55319726 0.4935552 0.09184518 -0.13528252 -0.033607453 0.3031721 0.38195616 0.42410406 0.41842145 0.3611945 -0.15015645 -0.12176442 -0.25973117 -0.4522951 -0.31842956 0.32565844 0.3173969 0.23167291 0.2794836 0.36988246 0.33358207 -0.25930536 -0.32987213 -0.31900793 0.23095956 0.20902568 0.19345349 -0.26857534 0.15538515 0.20473179 -0.23889989 -0.26330566 0.0070040002 0.21758676 -0.23938332 -0.3199512 0.12229681 -0.45595765 0.032050952 -0.38839447 0.3269255 -0.030039825 0.40054464 0.1993381 0.29642406 0.14554614 0.22648282 0.23926009 0.056296818 0.3344828 0.3582446 -0.27170497 0.18451855 0.26357183 0.2669174 0.3075204 0.33067256 -0.21462387 -0.13535449 -0.13155918 -0.19595811 0.44439486 0.32837006 -0.106570035 -0.11115403 0.19332807 -0.10551195 -0.18969683 -0.20003024 0.10689722 0.059103213 -0.1296425 0.1537556 0.15284649 0.030462394 0.15064308 0.20462881 0.1761671 0.19963425 -0.011982419 0.0016700253 0.16774721 0.2776812 0.24322131 0.21629941 0.24373887 0.2606492 0.22175911 0.10335683 0.033783104 0.116379395 0.21010503 0.28507844 0.31415308 0.35512573 0.23949152 0.26285058 0.26639143 0.15473264 0.19914152 0.22318304 0.22143026 0.6588715 0.6646994 0.6378262 0.18664774 0.12621728 0.13929075 0.18813244 0.18445633 0.18382074 0.15333793 0.13990101 0.6038556 0.63662505 0.6413145 0.60668004 0.52977276 0.05153995 0.14268635 0.14731792 0.5544517 0.56983244 0.5968166 0.56030595 0.49003944 0.074402 0.15964437 0.14832848 0.5213499 0.49013147 0.5108696 0.42247808 -0.01644196 0.21458022 0.619712 0.5259804 0.360472 0.40549296 0.38279372 0.27261937 0.2237936 0.059035234 -0.0537952 0.15046644 0.16275346 0.642112 0.6298903 0.5431076 0.25909147 0.49689108 0.2439391 0.28330904 0.18635918 0.21906343 0.6289415 0.6075809 0.5217553 0.30783066 0.4537426 0.5163867 0.44038227 0.0894761