# vtk DataFile Version 2.0
Really cool data
ASCII
DATASET POLYDATA
POINTS 2689 float
24.41613 22.214653 -0.490126
24.332432 22.680304 -1.2049701
24.255966 22.56236 -0.5583574
24.329432 22.710268 0.009145409
24.20461 23.486298 -1.2098515
24.108334 23.587671 -0.6516267
24.266575 23.398794 0.04292403
24.311045 24.104204 -1.0358899
24.28362 24.128046 -0.57315576
24.341022 24.235226 -0.16436681
24.408329 32.07113 -3.7695673
24.359394 33.04526 -4.7881594
24.229128 32.81453 -4.241932
24.169962 32.646954 -3.485813
24.264328 32.77574 -2.9711685
24.393875 33.452225 -4.914619
24.198864 33.283173 -4.3931007
24.102406 33.40148 -3.5689929
24.257725 33.37083 -3.0197754
24.440985 34.71627 -5.0106134
24.323551 34.50684 -4.48537
24.27849 34.057426 -3.603814
24.3567 33.832787 -3.006956
24.442322 35.18959 -4.4630527
25.130201 22.134342 -1.9248267
24.854269 21.84469 -1.1638838
24.827354 21.744795 -0.5040041
24.810572 21.956448 0.09639457
24.84457 22.652527 -1.9959526
24.552048 22.32458 -1.5513549
24.669302 22.404537 0.26772866
25.019638 22.570509 0.7016259
24.831821 23.408266 -2.0834768
24.404604 23.716928 -1.647442
24.430748 23.227734 0.24114946
24.925518 23.567142 0.72868353
25.020271 24.217009 -1.879798
24.612095 24.163218 -1.4458904
24.492256 24.474314 -0.3150653
24.79422 24.199797 0.42742932
24.949526 24.81805 -1.2148209
24.771368 24.75538 -0.46786207
25.193394 30.972813 -4.001272
25.146225 30.960293 -3.4853675
25.170765 31.106672 -2.8914351
25.191698 31.673018 -4.9108386
24.622267 32.01557 -4.2639046
24.693092 31.683157 -3.5800946
24.78047 31.80432 -2.9240615
24.61402 32.697037 -4.8851
24.436462 32.53618 -4.534923
24.634476 32.451447 -2.6274943
25.03158 32.507507 -2.2878757
24.920132 34.052986 -5.675048
24.678913 33.6747 -5.2960067
24.55604 33.55222 -2.6298494
24.997866 33.450214 -2.1560307
25.07886 34.529575 -5.865573
24.631153 34.63907 -5.364982
24.57342 34.60672 -3.5248508
24.829893 34.256474 -2.7996209
25.016304 33.85574 -2.3070066
25.040834 35.309437 -5.7006617
24.743004 35.289974 -5.295871
24.57403 35.414658 -4.487394
24.730364 35.379337 -3.9328437
24.984673 34.74102 -2.9516964
25.032509 35.930134 -5.083777
24.958868 35.898136 -4.5465536
25.056452 35.755756 -3.9452846
25.481709 21.446442 -0.47495836
25.472729 22.100208 -1.9888985
25.538227 21.655403 -1.4419721
25.31792 21.773884 0.24123633
25.699694 22.19839 0.8412354
25.626337 22.92632 -2.5369275
25.532606 22.582611 -2.3467958
25.759472 22.916912 1.1962655
25.622822 23.311974 -2.5334542
25.452066 23.40348 -2.403685
25.699045 23.28906 1.2519165
25.86599 24.385231 1.2954941
26.171812 25.379248 -1.9884511
25.55873 25.526798 0.24412553
26.00151 25.453796 0.8623553
25.659014 25.872322 -1.0594884
25.624985 25.977621 -0.44382006
25.766504 26.080349 0.15927663
25.84709 31.085434 -5.019864
25.496132 30.976208 -4.5104456
25.42565 30.655455 -3.578082
25.628414 30.659815 -2.723617
25.978872 30.710236 -2.2534328
26.116875 31.65805 -5.731985
25.557491 31.557205 -5.106227
25.61559 31.185896 -2.2759507
25.706573 33.120964 -6.0514994
25.368387 33.764355 -6.127482
25.66715 33.448498 -1.7586666
25.952734 34.24808 -6.4422345
26.028526 34.343243 -1.9377557
25.516424 35.36639 -5.925901
25.586975 34.74529 -2.4533072
25.36568 35.746796 -5.687531
25.591549 36.064182 -5.344416
25.573135 36.277493 -4.6667643
25.592472 35.967976 -3.9456959
25.988007 21.453682 -1.0029454
26.173191 22.099125 -1.9814905
26.435389 21.774591 -1.4197564
26.56015 21.562267 -0.8384037
26.378925 21.743727 0.17473765
26.215948 22.28467 1.045858
26.32006 22.75953 -2.3643653
26.552118 22.45677 1.2671403
26.04813 23.072788 -2.54317
26.028746 23.63587 -2.4896243
26.719501 24.216253 -2.2787907
26.736874 24.606903 1.7911493
26.375664 25.763216 -1.943603
26.54487 25.226894 1.4041564
26.988026 25.791021 2.0080683
27.054535 26.188078 -2.082789
26.581408 26.477982 -1.3950174
27.042128 26.229183 1.7541962
26.603197 26.720158 -1.3035007
26.851389 27.285093 0.6552225
27.022842 27.062813 1.2148192
27.316542 28.103294 -0.51895875
27.106665 28.089106 0.3151396
27.387144 27.966303 1.2682294
26.559444 30.178951 -4.827707
26.637539 29.726072 -3.4130197
26.706669 29.917534 -2.9718146
26.300032 31.080727 -5.4695263
26.618505 30.631895 -1.8005544
27.298788 31.740406 -7.336096
26.282026 31.683533 -1.7093347
26.985275 31.42352 -1.1496783
27.24909 32.544163 -0.9456293
27.015638 33.343002 -7.0635877
26.17242 33.491116 -1.5940404
27.390047 33.83077 1.5050684
26.627655 34.677605 -6.6659517
27.335114 34.578064 0.69803095
27.137505 35.163326 1.2957394
26.694984 34.881054 -6.5907955
26.935947 35.157085 -6.45758
26.619919 35.486908 -3.1136274
26.81877 35.575035 1.5337521
26.914644 35.76658 2.292743
27.197704 35.844616 2.8504453
26.329823 35.820564 -3.7304418
26.84192 35.72467 -3.100895
27.038141 36.580715 0.25397143
26.776741 36.664658 0.94501066
26.69286 36.48065 1.5914519
26.845709 36.523476 2.3673916
27.110153 36.53941 2.8254957
27.10364 37.17094 0.6864056
26.978935 37.307224 1.5901322
27.059002 37.15484 2.3022273
27.190596 36.94232 2.7424176
27.231863 38.696262 -6.48678
26.983608 38.995987 -5.350302
27.138662 38.820774 -4.8485208
27.272392 37.738453 1.4830432
27.457272 39.320847 -7.9258823
27.26672 39.470123 -7.008121
27.164455 39.523575 -6.2322826
27.02998 39.536217 -5.354864
27.144176 39.45438 -4.831961
27.35501 39.892372 -6.58991
27.215897 39.942413 -5.382311
27.14593 39.7987 -5.088423
26.886358 22.188517 -1.7246978
27.05238 21.984945 -1.2461941
27.667276 21.876247 -0.58510697
27.3414 22.909065 -2.0406513
27.747835 23.409895 -2.132562
27.51517 23.387022 2.0838513
27.452158 24.38948 -2.4926257
27.377825 24.8903 2.2942781
27.58024 26.022518 -2.2405534
27.524792 26.297863 2.2827985
27.871218 26.246582 2.581324
28.42869 27.518942 -5.425971
28.03014 27.872202 -4.5473433
28.239851 27.485712 -3.5124874
27.436142 27.7541 1.2840877
27.653494 27.162184 2.179891
28.341038 28.908678 -6.5551925
27.78374 28.256931 -3.5587776
27.807016 28.203331 -2.9158607
27.502104 28.61338 -1.1020643
27.505312 28.294477 0.6361026
27.834959 27.990852 1.9539484
28.291979 28.763145 5.623578
28.250359 28.920301 6.4308677
28.302683 29.067747 6.9615993
28.134573 30.049446 -7.591146
27.564741 30.25652 -5.920242
27.760632 29.21762 -4.7748184
27.654467 29.491474 -0.6829814
28.44785 29.305801 2.358629
28.347544 29.557854 4.7413874
28.09025 29.613066 5.6088166
28.115356 29.538872 6.4454
28.231527 29.49056 6.8795795
28.051811 30.90392 -8.322379
27.95953 30.445936 -7.5864115
27.74428 30.55387 -0.40625313
28.263683 29.97928 1.2110785
28.323332 30.486135 4.780151
28.119907 30.09144 5.7033854
28.191494 30.20782 6.5853996
28.225105 30.076849 6.90207
28.120403 31.724855 -8.827236
27.916954 31.542624 -8.473156
27.552074 31.26918 -7.2199087
27.470913 31.844381 -0.9480499
27.921291 31.404715 -0.09630374
28.136683 32.434204 -8.902735
27.692022 32.628757 -8.425912
27.73107 32.11743 0.22174715
27.835814 32.81217 1.4994316
28.410614 32.178757 2.3378336
27.948074 33.24291 -8.253578
27.46086 33.160942 -7.487355
27.573313 33.43598 0.56264675
27.636425 33.902554 2.5765088
27.500631 34.77344 2.57679
27.788414 34.59045 2.8681278
27.186317 34.88016 -2.4142737
27.967262 35.827507 -0.89897907
27.614786 35.659676 3.0875661
28.250906 36.646603 -6.9126596
27.395168 36.509056 -3.6862068
28.37927 36.487213 -1.2216724
27.664637 36.220737 -0.26085985
27.663895 36.40429 3.200514
28.171682 37.96556 -10.466856
28.109823 37.92435 -9.288237
27.856668 37.821358 -8.11533
27.660284 37.67307 -7.3332167
27.749563 37.230515 -3.609004
27.476088 36.976986 0.14012119
27.34939 37.439495 2.466463
27.693264 37.10334 2.9770799
28.24495 38.37821 -11.09639
28.02056 38.476696 -10.446598
27.741165 38.7278 -9.153253
27.50666 38.733315 -8.220645
27.682251 38.354694 -4.0578475
27.898617 37.96638 0.9488478
27.6656 37.99686 1.6051267
27.69563 37.857567 2.2495432
28.375263 40.08731 -14.917717
28.38109 39.62029 -13.539162
28.194069 39.670853 -11.584263
27.96295 39.17504 -10.537075
27.936378 39.514618 -9.377701
27.645815 39.507515 -8.375308
27.345516 39.46099 -4.427341
27.879913 39.61043 -4.226982
28.303692 40.60053 -15.008606
28.133547 40.509827 -14.359596
28.226913 40.61754 -13.132263
28.451897 40.676346 -12.757699
28.229261 40.614384 -11.074856
28.18002 40.28171 -11.003947
28.058125 39.98192 -9.414502
28.024551 40.034573 -8.351833
27.658434 40.084805 -7.0354333
27.597271 40.308647 -6.1961236
27.576483 40.357704 -5.5375724
27.677135 40.195312 -4.832847
28.003965 39.9417 -4.28633
28.177101 41.038387 -14.406727
28.32068 41.454044 -13.6287155
28.450468 41.530663 -12.902954
28.42002 41.405804 -11.345718
28.065254 40.658184 -5.663445
28.884892 21.038832 0.9860972
28.956263 20.736734 1.5253915
28.762167 20.82963 2.0973716
29.085083 21.064672 2.8756738
27.863447 22.117443 -1.0948517
28.426355 21.855997 -0.23506516
28.72967 21.511889 2.6058326
27.895292 22.945627 -1.7709144
28.20464 22.460575 -1.1272213
29.336637 26.133385 -6.9487953
29.234245 25.823023 -4.053599
28.956514 25.84717 3.119489
29.171186 26.309973 -6.770208
28.997524 26.613806 -5.4151635
28.783672 26.726398 -4.6451917
28.682186 26.645584 -3.772307
28.584862 26.306238 2.7929533
29.219168 27.175982 4.3255777
29.299368 27.01422 6.3380885
29.341448 27.054792 -7.4786067
28.692535 27.642288 -6.418954
28.527977 27.302868 2.9415543
28.982883 27.444689 4.351741
28.908485 27.7596 6.513733
29.268906 27.410055 6.8231287
28.746199 28.767784 -6.7160387
28.673178 28.619528 4.5046597
28.439407 28.60111 6.287151
28.550406 29.03348 7.21629
28.794043 29.793312 -7.9861217
28.478876 29.346369 1.6136725
28.614817 29.937565 2.0306902
28.617798 29.561993 7.3486056
29.015066 29.4553 7.6454525
28.766348 30.96297 -8.960146
28.473633 30.688276 -8.525162
28.573038 30.14286 7.2398806
29.060442 30.16357 7.6958327
28.63835 31.649174 -9.2020235
28.46728 31.314116 2.33893
28.731234 31.26299 6.263701
29.023674 31.00275 7.005786
28.61137 32.472824 -9.235576
28.978472 32.875484 3.275719
29.174913 31.700127 5.8097534
29.057165 31.654684 6.049386
28.468376 33.020996 -8.903526
28.351667 34.12558 -7.7344193
[...]
POINT_DATA 2689
SCALARS features_00 float 1
LOOKUP_TABLE default
0.9318352 0.9647176 0.9167334 0.8443209 0.86753166 0.82341754 0.7999195 0.7629651 0.7472276 0.70863235 0.5840139 0.5701749 0.6092411 0.6431923 0.6468989 0.58889556 0.6279586 0.66131794 0.64165926 0.6688181 0.6755445 0.65532684 0.62170386 0.69801277 0.88824445 0.98670745 0.9578785 0.8551201 0.8996361 0.9736694 0.8143554 0.7428974 0.86624146 0.85470384 0.78729576 0.68380183 0.74837863 0.7550694 0.6753521 0.6405468 0.6313701 0.6344544 0.4786226 0.5090089 0.5221559 0.44326502 0.53451467 0.5601853 0.5774342 0.51621115 0.55174094 0.6136282 0.5635084 0.5560617 0.559803 0.5998827 0.5536622 0.5752434 0.63923997 0.63680637 0.57077277 0.5495277 0.6515599 0.68636054 0.70235765 0.66309536 0.5597501 0.71569407 0.7035755 0.63904846 0.9529271 0.84023225 0.8855964 0.83515453 0.7260043 0.77085036 0.8010707 0.6218085 0.7518646 0.7764831 0.5884715 0.45387557 0.5055764 0.483715 0.3694051 0.5287846 0.5198407 0.4302916 0.3506928 0.42214 0.47383627 0.47539094 0.41715458 0.25906232 0.3961146 0.45480648 0.3924148 0.47774804 0.49151102 0.42790836 0.45643198 0.60555506 0.48741704 0.6649344 0.6872673 0.6734476 0.5731091 0.8377203 0.7285286 0.69255114 0.70168316 0.8382218 0.66750467 0.6829679 0.5883211 0.70381445 0.67241263 0.58507144 0.2871905 0.42972896 0.2921974 0.19694817 0.3325928 0.38298875 0.1950641 0.37407643 0.18347758 0.18993935 0.08493617 0.08930852 0.12301435 0.2449138 0.3315851 0.3740011 0.23287742 0.22872508 0.30544773 0.29060185 0.034714602 -0.017814882 0.19418736 0.4375158 0.291146 0.34073353 0.3896811 0.5232798 0.35383338 0.30905753 0.32200468 0.60661757 0.614023 0.61185086 0.38125992 0.24008109 0.5163404 0.66526103 0.6899189 0.66866994 0.6558254 0.5909513 0.6755979 0.6826206 0.6718031 0.444135 0.5178312 0.49367183 0.64580894 0.33823964 0.4161017 0.5004296 0.54796314 0.539942 0.47362745 0.55433935 0.5543394 0.59570795 0.55269474 0.4250158 0.5367728 0.46824542 0.33204585 0.51303595 0.17106196 0.2789638 0.144255 0.103586294 0.17894804 0.1044559 0.09158452 0.13780172 0.14506018 0.08047809 0.024158046 -0.032194816 0.021353602 0.070753016 0.10945137 0.39439735 0.4223149 0.43261027 0.20955113 0.056953028 0.049190823 -0.100376144 -0.10290217 0.4262396 0.48433894 0.4787612 0.46923497 0.33052427 0.24269092 -0.17069629 -0.13913235 0.538361 0.54330486 0.53670126 0.51127017 0.37697905 0.37131703 0.27029058 -0.06063985 -0.20474215 0.36790106 0.3471393 -0.20039856 0.06286417 0.09051235 0.28236234 0.23626603 0.07132647 0.33827996 0.50437057 0.46566057 0.2611675 0.112155035 0.58132327 0.11364261 0.0012535192 -0.015752017 0.32187283 0.61019194 0.20483151 0.22389492 0.25249553 0.27979758 -0.11195925 0.4298833 0.671516 0.6434591 0.22339202 0.23328598 0.28066796 0.32166013 0.29750878 0.53869104 0.6105604 0.6341456 0.42792004 0.3633002 0.2352633 0.22795282 0.23682353 0.30100417 0.51524734 0.4882551 0.4253456 0.4156299 0.326912 0.27760026 0.18594176 0.20068724 0.19791865 0.27259147 0.41536954 0.50995815 0.5462921 0.5473231 0.50831616 0.40237296 0.33554834 0.24065125 0.17438866 0.51569855 0.4990886 0.5189748 0.47541484 0.38524 0.39121902 0.16342634 0.38040155 0.4064172 0.2910516 0.35314283 0.23320432 -0.11511152 0.33825937 0.26463538 0.21809661 0.1710421 0.0038673151 -0.04278262 0.1432299 0.30637103 0.20406976 -0.024139073 0.022733292 0.25135225 0.19330245 0.104576685 0.28573686 0.37993276 0.41846538 0.20348048 -0.0753609 -0.14592846 0.45931864 0.43130362 0.30840808 0.3071851 0.5017503 0.46236384 0.3493514 -0.07789269 0.52147865 0.47447777 0.35379845 0.11231684 0.41911867 0.43805292 0.3279368 0.12245261 0.45558637 0.038835686 0.0898849 0.07934742 0.5520915 0.20533761 0.20217115 0.15056884 -0.27419412 0.20483634 0.567507 0.38859686 0.25632262 0.1998002 -0.033142544 0.38267374 0.43450904 0.39914596 0.41267794 0.42514157 0.2475453 0.48944777 0.46310568 0.4097926 0.14677696 0.12175487 0.13940944 0.35277408 0.36844707 0.4332307 0.44588357 0.32554042 0.24089582 0.28894943 0.30686483 0.56853175 0.550712 0.3102781 0.19891158 0.2527994 0.28551215 0.31656575 0.5573937 0.5092012 0.3703046 0.26978433 0.30080184 0.5450287 0.5254605 0.45182672 0.58838236 0.4112875 0.38740033 0.3634343 0.43777546 0.3503375 0.35674918 0.34747967 -0.05364274 0.29835263 0.27809322 -0.18600915 0.13061213 0.21524917 0.044059746 0.37203872 0.3782415 0.38918203 0.35599843 -0.3110466 -0.31394863 -0.066384636 0.44757733 0.36146575 0.37033617 0.3708089 0.34616506 0.2705106 0.15247756 -0.24067903 -0.10201653 0.0095070265 0.39974385 0.45779613 0.34290272 0.35831457 0.06716681 0.10107486 0.08926708 0.0023370162 0.22378339 0.18188727 0.19156666 0.0020507444 0.14929947 0.100347325 0.33954272 0.21727541 0.20624542 0.3324495 0.15906775 -0.23906435 0.33472317 0.39679417 0.35490578 -0.005911067 0.4148349 0.3437407 0.31150433 0.38099295 0.31383416 0.27347168 0.03185001 0.43258798 0.2937234 0.34664562 0.4738081 0.14134693 0.06333807 0.5247491 0.48724592 -0.18710056 0.10062822 0.3145374 0.2412684 0.13164149 0.1694133 0.0598991 0.25603002 0.08673997 0.20831206 0.19273543 0.40626812 0.08118369 0.2513148 0.3152559 0.5378355 0.13788524 0.123423204 0.21727169 0.32290033 0.5710465 0.5720068 0.3246147 0.1256353 0.15560341 0.25184938 0.30500028 0.32970154 0.5647295 0.56838536 0.52308923 0.41972995 0.27966514 0.18401554 0.34592885 0.59079957 0.54564846 0.45502853 0.5780951 0.41134086 0.38850248 0.35612637 0.32592443 0.35973936 0.29631191 0.22690025 -0.27521187 0.10192253 0.46776718 0.5499953 0.61450654 0.3430047 0.34169093 0.41702986 0.30779034 -0.22790971 -0.31269255 -0.091879666 0.4456021 0.49073395 0.5255437 0.586012 0.36042818 -0.09976109 0.0023430586 0.31251448 0.36202818 0.47512984 0.4889757 0.1144698 0.23284145 0.32686874 0.3679319 0.4190672 0.2182078 0.25638822 0.30324334 -0.056028258 0.21071762 0.2669317 -0.011881933 0.14414257 0.18632662 0.25313073 0.0015391149 0.1694816 0.092058316 0.121056914 0.2214144 0.20165281 0.042907093 0.24499914 0.12934981 0.30512875 0.5994336 0.46918732 0.42027304 -0.19922808 -0.05975941 0.45578942 0.3935303 -0.21732038 0.016266957 0.03234461 0.5012306 0.37971666 0.5522863 0.5068975 0.17161271 0.5337179 0.53897023 0.46069664 0.018082928 0.4326614 -0.023657814 0.18681994 0.19423595 0.16576403 0.085534446 0.4186557 -0.06133157 0.03948768 0.08733502 0.18207325 0.20910442 0.22122905 0.20015728 0.14190046 0.58220315 0.18375011 0.08475959 0.5844596 0.28224066 0.22937532 0.567935 0.5629424 0.3726542 0.32399565 0.55620426 0.5628521 0.29132688 0.25302678 0.3011152 0.39527643 0.4338389 0.5467684 0.4728418 0.3622091 0.38244632 0.37730384 0.43094063 0.5735903 0.57306683 0.5405264 0.43946344 0.37427318 0.5572349 0.33293778 0.31687665 0.5013818 0.3098006 0.27190435 0.3848959 0.5074359 0.55807275 0.6029558 0.61960506 0.4078989 -0.097608514 0.039881572 0.5932045 0.62289286 0.39549935 0.33081535 0.3409863 0.34578574 0.26134518 0.57730293 0.52889454 0.29500744 0.425169 0.3693705 0.20730728 0.30879158 0.31786108 -0.011638537 -0.10657603 0.28059736 0.3326549 -0.002864331 -0.092396945 0.03470007 0.20688635 0.33660632 -0.051611982 -0.07480888 -0.10847291 0.13774177 0.014587398 -0.024695575 -0.13794422 -0.13449393 -0.08259726 0.48874053 0.55506873 0.5796662 0.48758557 0.47152746 -0.0874008 -0.18234187 -0.07587947 0.028129105 0.5624192 0.6122266 0.60929775 0.50749147 0.06452664 0.0068633705 0.49269426 0.60630083 0.64345306 0.6411183 0.08014191 0.098506615 0.06729442 0.09067849 0.58432806 0.66615903 0.6909175 0.6896919 0.41512293 0.09621425 0.37395623 0.5366305 0.66875696 0.7011927 0.5623654 0.16595903 0.16277152 0.16683099 0.11842025 0.67097527 0.69513494 0.5435591 0.5518001 0.051773753 0.11928302 0.13388625 0.513795 -0.00044898316 -0.005003579 0.0695274 0.093710855 0.03294857 0.031573657 0.087744296 0.6382791 -0.024013773 0.024426635 0.1856642 0.14339264 0.14880732 0.23906887 0.660524 0.63332075 -0.09780429 -0.1443752 0.18934026 0.20625827 0.17205843 0.14596541 0.6558073 0.61793715 0.26539388 0.13931154 0.5910279 0.5616548 0.2926325 0.5457596 0.52664995 0.38992375 0.56457525 0.5329571 0.48683494 0.44922572 0.47185677 0.4948501 0.49106753 0.50285625 0.4834842 0.54951036 0.5193691 0.45070487 0.361059 0.542332 0.5371412 0.32730103 0.2825602 0.26918006 0.26414782 0.47802955 0.20752096 0.17447394 0.25222722 0.47488564 0.5510598 0.5814761 0.22078893 0.44765326 0.54746425 0.59556425 0.6122527 0.57792246 0.48531127 0.4814508 0.26769468 0.605631 0.5793699 0.45523095 0.14240429 0.15879077 0.5684366 0.49990946 0.57266384 0.37246138 0.5031101 0.30144307 0.29679692 0.19331515 0.3794158 0.4884963 0.16990931 0.53111315 0.59721833 0.03586989 0.492984 0.14787485 0.22384071 -0.09439613 0.3574269 0.55587935 0.13781156 0.23789386 0.5834443 0.4426553 0.38699657 0.62666607 0.3896165 0.27193028 0.67761445 0.2723683 0.17423815 0.04128424 0.0560506 0.30659768 0.49339938 0.69351006 0.67970455 0.52905834 0.51321614 0.058992505 0.5459098 0.6574299 0.6854093 0.53116727 0.54761326 0.15315422 0.495773 0.14580008 0.1362862 0.23762318 0.314587 0.689549 0.6059873 0.2885801 0.32745847 0.70598835 -0.22835329 0.1577698 0.33651662 0.40340972 0.51363516 0.5972372 0.64230967 0.67031586 0.6840037 0.22159179 -0.17591293 0.08568302 0.13481118 0.09583557 0.08206513 0.4309303 0.5207859 0.61373293 0.64624774 0.60457957 0.5717718 0.2887857 0.3145064 0.29383224 0.09176435 0.057409246 0.5763649 0.62965155 0.5227729 0.5470078 0.47978354 0.46105772 0.33217078 0.5024584 0.5316757 0.55901104 0.5214738 0.518505 0.4965964 0.47814122 0.54562366 0.5359522 0.5337854 0.5279601 0.49182665 0.4128611 0.36620554 0.22980267 0.19386075 0.25355121 0.23556513 0.2228174 0.31947255 0.17833942 0.38893762 0.49543935 0.5820533 0.2213106 -0.027605567 0.59221685 0.6004571 0.6594194 0.67190754 0.6590105 0.5093305 0.09203037 0.55752045 0.6146884 0.63283205 0.21465181 -0.134107 -0.05049885 0.4759818 0.5778631 0.5285312 0.4228212 0.5802195 0.46143186 0.5931665 0.6397059 0.72077596 0.7135947 0.3205706 0.58063066 0.3048048 0.24122551 0.27360174 0.4921833 0.3139504 0.17075847 0.5674805 0.21330243 0.6001493 0.018467756 0.64231694 0.4546413 0.24019133 0.027027994 0.15740797 0.48200852 0.61014193 0.6441895 0.4853886 0.3123821 -0.11331491 0.4830789 0.33274487 0.17123239 0.053414226 0.18012626 0.4157207 0.71230066 0.6323888 0.72577673 0.648784 0.69949687 0.64362 -0.13919842 -0.1510619 -0.08112803 -0.044828996 0.042801734 0.28697863 0.6584978 0.65102994 0.64887786 0.5819098 0.3901971 0.24439329 0.29809433 0.25532448 0.03538707 0.030543309 0.13188516 0.45861924 0.58790165 0.6271026 0.65508693 0.52185434 0.5210126 0.5242217 0.50942826 0.43911266 0.411655 0.4171833 0.28674787 0.044949003 0.032160398 0.5188502 0.5347436 0.5493406 0.55829996 0.55672985 0.5461391 0.5416345 0.5529275 0.5454861 0.48375398 0.47342467 0.38072932 0.5537284 0.551458 0.56038564 0.5444553 0.52135503 0.49839702 0.5498357 0.52535826 0.23455897 0.2379024 0.22550437 0.05768518 0.043125957 0.064181626 0.20682567 0.14945869 0.53774107 0.16615255 0.008292353 0.49978298 0.5053752 0.5097749 0.6861028 0.7173599 0.6992039 0.5856745 0.42696556 0.6228676 0.65211344 0.21299735 0.3862495 0.5648149 0.58677024 -0.37616065 0.177225 0.5455241 0.5265379 0.41277885 0.5987626 0.42367643 0.6408361 0.6944399 0.76061165 0.27686843 0.7403712 0.3407579 0.6044 0.33630353 0.29682124 0.326775 0.11762776 0.052190296 0.4455058 0.053683415 0.52211547 0.016346509 0.54516274 0.04281091 0.47005808 0.5463339 0.06714895 -0.14134294 -0.22608936 0.18650776 0.31437305 0.3386382 0.03474769 0.36453053 0.66795045 0.5824654 0.7111177 0.68451583 0.57987064 0.5724391 0.60765 0.69932854 0.6470732 -0.13512163 0.64511263 0.632414 0.564283 0.57605463 0.37093368 0.31127506 0.3645857 0.4900617 0.61260056 0.6452212 0.551581 0.5530967 0.54807085 0.49411666 0.44467914 0.49550807 0.5070766 0.4281873 0.23427393 0.5459832 0.5531472 0.525094 0.5089391 0.51833963 0.16182105 0.52148324 0.54958725 0.47322935 0.3794471 0.54785097 0.5339654 0.5189589 0.47718823 0.26276797 0.2974315 0.2788381 0.24408975 0.18397777 0.11912885 0.3396675 0.3924297 0.6827326 0.70589453 0.67191195 0.1744695 0.15542081 0.3556492 0.3843535 0.6160417 0.62620795 0.64927876 0.6542001 0.51382375 0.39222118 0.070970796 0.2691146 0.5693158 0.18501166 -0.42622936 0.1696507 0.516317 0.51962245 0.5883291 0.46877322 0.6779052 0.71542597 0.22110473 0.75050515 0.72020185 0.3407557 0.55261374 0.6397829 0.36289907 0.36154428 0.16621193 0.35081083 0.3555265 0.12541474 0.2670861 0.3139587 -0.16145992 0.39060602 0.47737053 0.091600426 0.08778905 0.27652866 0.33239257 0.4534546 -0.2588207 -0.3220671 0.24500138 0.17223233 0.08753856 0.58610356 0.58245564 0.53351605 0.55754524 0.58033824 0.60642934 0.5735011 0.5549 0.40660807 0.22087193 0.011199564 0.23791799 0.5771263 0.59832823 0.30325964 0.25519437 0.40747297 0.31030595 0.33312958 0.32991564 0.3868807 0.28106946 0.20389551 0.32181895 0.3330292 0.31721005 0.26890224 0.24329536 0.24377486 0.23836407 0.27527392 0.014510702 -0.3052045 0.021962628 0.012337394 0.14740147 0.14318757 0.25873232 0.5693346 0.15547797 0.13833609 0.541286 0.48919666 0.3274297 0.05204883 0.4826693 0.30553877 0.5565429 0.23194097 0.58055913 0.6711528 0.051114984 0.4275539 0.6842439 0.7270842 0.29871362 0.5141581 0.68688095 0.71400344 0.37656796 0.6548928 0.38575026 0.3806138 0.38597596 0.37350684 0.33805865 -0.30211607 0.19068485 -0.10190588 0.16771778 0.19604243 0.2143152 -0.35268182 -0.3520799 0.101624414 0.19634515 0.21891712 0.2229405 -0.024864659 0.48313278 0.52222705 0.19599815 0.17619029 0.3209008 0.26965743 0.29212353 0.09029691 0.029067345 0.27865362 0.3453945 0.3298321 0.20112853 0.14209995 0.2844185 0.379593 0.39403093 0.3388415 0.37012702 0.36188963 0.3421845 0.25220454 0.21486881 0.23476207 0.51466596 0.47424227 0.4365901 0.28940225 0.1805115 0.49108085 0.47124037 0.47589213 0.3536327 0.32167286 0.17746073 0.29444665 0.42518896 0.0701666 -0.014456615 0.02986743 -0.0528612 0.02037822 -0.07668306 -0.112273365 0.5614134 0.30796382 0.25921357 0.43335038 0.5726733 0.3678727 0.3784025 0.38534927 0.37731868 0.09051408 0.31901538 -0.13716277 0.4020489 -0.14370525 0.39675027 0.3492853 -0.15085801 0.074266225 0.33941254 -0.088373095 0.10799302 -0.06675481 0.013525166 0.011114914 0.05630663 0.033853225 0.05657476 -0.015576154 0.010712251 0.22227708 0.18836147 0.27352327 0.28613096 -0.08344224 0.011214979 0.26892525 0.20682068 0.29603863 0.3124443 0.07317463 0.0095368195 -0.08327105 0.3076665 0.34311375 0.04714519 0.09367968 0.23696893 0.18566048 0.28417543 0.34814313 0.3774174 0.32680428 0.38679773 0.3014219 0.35915858 0.3698237 0.35232085 0.17710097 0.2175341 0.16766003 0.19969867 0.2640341 0.5325331 0.49614215 0.4423856 0.29839092 0.28379542 0.2891556 0.27123877 0.27725258 0.3322632 0.5116002 0.49685293 0.2346559 0.16834718 0.38027954 0.103626445 0.21052545 0.09819822 0.03640701 -0.07149393 0.09216069 0.025230266 0.1121593 0.1764009 0.14148392 0.3340798 0.00025567412 0.33314314 0.28791755 0.073868275 0.1608243 0.22209267 0.3330512 0.3055855 0.41159475 0.42037505 -0.097568855 0.40692127 0.3809271 0.394624 0.038361035 0.042977676 0.17935735 0.30084702 0.3414175 0.01704406 0.08317255 0.113296404 0.11320163 0.15821786 0.29770553 -0.23952684 0.27181417 0.1207907 0.03984828 0.21430774 0.14750862 0.14058451 0.111127615 0.15795097 0.1305533 0.28021985 0.37280965 0.32833764 0.24038494 0.39143547 0.33244208 0.46044153 0.4440809 0.41958547 0.4395002 0.4229719 0.4149928 0.25447547 0.18607348 -0.0410531 0.5608874 0.5630275 0.531927 0.45426527 0.3517159 0.07861767 0.5217888 0.52631485 0.30799294 0.416404 0.3126144 0.25291795 0.1143331 0.111626364 0.08417133 -0.08766546 0.107591406 0.06335726 -0.023555057 0.1840049 0.14603283 0.23590909 0.116607025 0.18872197 0.37163538 0.30009955 0.3486567 0.35643566 0.38555652 0.19977826 0.40713876 -0.0069532692 0.39941776 0.07109526 0.3698243 0.39087236 0.17771757 0.17829295 0.27380443 0.363526 0.17056987 -0.08809312 0.19055575 0.093958504 -0.0013923757 -0.09302461 0.023562275 0.04005748 0.14766525 0.15954003 0.23808062 0.15156184 0.1443944 0.28396547 0.3160528 -0.082133345 -0.013207324 0.10842809 0.07720767 0.12595516 -0.16475321 -0.06391595 -0.047212213 -0.05040202 0.2143167 0.24090737 0.20177892 -0.06396284 -0.0018600596 0.18360564 0.20859848 -0.05720744 0.26229042 0.12115982 0.3187449 0.22247009 0.33570883 0.4746542 0.4733634 0.41227347 0.31090942 0.27591863 0.4263798 0.4513445 0.26928726 0.123793446 0.191998 0.5554266 0.519057 0.44479465 0.3434247 0.25156143 0.15815288 0.5251305 0.5362021 0.44010973 0.29055864 0.34552106 0.19955134 0.13913955 0.060703795 0.043551546 0.15968606 0.20800178 -0.052460473 -0.012135766 0.28503335 0.188613 0.039885573 0.37270296 0.449568 0.24512433 0.4694792 0.30605233 0.38732558 0.37324864 0.01300481 0.35895863 0.33637732 0.2835984 0.31425202 0.33641773 0.24458064 0.114087574 0.17661132 0.12500477 0.037126698 0.10761282 0.14241518 0.09658487 0.20963128 0.2572681 0.24656764 0.20698482 0.32852724 0.0014640987 0.038260907 0.2313092 -0.088083975 0.15993015 0.45146313 -0.035381064 -0.08280786 0.34290606 0.4040476 0.42298955 0.44510332 0.36484966 -0.06334303 -0.07864766 0.4879726 0.47765145 0.6207917 0.6647463 0.3655518 0.42151862 0.11477868 0.1834181 0.5939417 0.6720191 0.44393763 0.3915643 0.07460602 0.07593749 0.144018 0.218893 0.19379666 0.05403863 0.4784966 0.4805081 0.41859427 0.340936 0.28827316 0.24491335 0.40441537 0.4602433 0.2936947 0.40477148 0.4410747 0.3366041 0.25962114 0.19539326 0.21790895 0.53323376 0.49136096 0.42977688 0.5167304 0.51595813 0.54312956 0.4056096 0.4290333 0.51870877 0.54675984 0.30595604 0.23197019 0.19455212 0.039019533 -0.040290814 0.17529038 0.2422849 0.027832642 0.31998426 0.2175141 0.22153428 0.42776853 0.37289608 0.21529394 0.3871646 0.46966705 0.351967 0.4895026 0.47992995 0.33106345 0.37407714 0.33677918 0.072359614 0.14325961 0.15284127 0.22622906 0.2596892 0.26368585 0.26316205 0.20983596 0.23145968 0.15430956 0.124474734 0.17014976 0.16457714 0.113539286 0.12577425 0.18885826 0.21836703 0.12281819 0.19739987 0.3590674 0.32886243 0.3693314 0.40021676 0.44531354 0.15817668 0.24257287 0.37855256 0.5253067 0.2984699 0.19846548 0.54748863 0.54407877 0.5328459 0.33216324 0.64137936 0.66700554 0.5132609 0.5031439 0.2008943 0.3653245 0.5520541 0.6797142 0.72062236 0.7140534 0.47515947 0.4547884 0.07794385 0.1405548 0.18319428 0.7108544 0.74493945 0.74954224 0.3896799 0.26870832 0.05849389 0.12604234 0.16392803 0.34600833 0.27933398 0.2691445 0.26909822 0.32502505 0.37030092 0.40091255 0.41739297 0.4778493 0.3865443 0.4312994 0.44687304 0.3757535 0.32785347 0.29167736 0.3501845 0.49848986 0.53954345 0.5449822 0.11021065 0.5395852 0.3568471 0.21028294 0.1567932 0.54749054 0.57211417 0.33529615 0.27351213 0.6060716 0.21942401 0.36631256 0.49137568 0.57102084 0.6021286 0.12631287 0.036144163 -0.0071890727 -0.07336199 0.27329358 0.23017131 0.4121366 0.4167902 0.39403385 0.38421017 0.46566227 0.46569777 0.45086092 0.4179263 0.42065334 0.46069485 0.48387164 0.4732439 0.379523 0.43911386 0.4237464 0.31543964 0.048078176 0.111460984 0.10321249 0.22791536 0.08854508 0.1202739 0.25195265 0.2282272 0.10681515 0.22580165 0.1338536 0.16513614 0.14859425 0.10611381 0.16202387 0.14593798 -0.009630583 0.07986979 0.15682898 0.034660086 0.007452812 0.24011663 0.2503948 0.18865114 0.08894445 -0.15482497 -0.14689994 0.37984377 0.38876337 0.228146 -0.18957372 -0.1647088 0.40960783 0.41889322 0.42952433 0.4814703 0.17021209 -0.085025534 -0.38988632 0.3670776 0.3965456 0.56174624 0.26528168 0.32699585 0.5695373 0.5830001 0.4535739 0.55990094 0.5638068 0.6332636 0.5466122 0.5223756 0.71796316 0.6785871 0.4819663 0.4573778 0.37809998 0.21873733 0.5377912 0.66521734 0.7324463 0.7566767 0.7469871 0.17386034 0.18869367 0.21931449 0.19624892 0.5584212 0.58630776 0.42422563 0.41165137 0.4757725 0.5176114 0.5337152 0.33396083 0.30467972 0.2560635 0.28231397 0.512955 0.30940652 0.27937442 0.21627931 0.20092142 0.5497316 0.12509397 0.5999977 0.23423585 0.20895782 0.12822099 0.61288846 0.22953413 0.61301935 0.19251063 0.2145909 0.3251758 0.5457735 0.040742118 0.2304649 0.1248914