# vtk DataFile Version 2.0
Really cool data
ASCII
DATASET POLYDATA
POINTS 7850 float
28.41682 55.98922 3.0158463
28.359407 55.80457 3.6162355
28.39262 55.85942 4.1905427
28.398466 56.225647 3.0464087
28.352697 56.4012 3.571509
28.33869 56.375786 4.195225
29.074224 55.056812 2.7349377
28.838095 55.01208 3.4933217
29.019566 55.00645 4.4929566
29.222975 54.975986 4.7645316
29.029224 55.829155 2.1457136
28.749123 55.622066 2.677104
28.525623 55.40082 3.5758948
28.55774 55.543537 4.452596
28.760065 55.61721 4.84956
29.015451 56.291805 2.1115673
28.58652 56.287403 2.7031896
28.475538 56.36234 4.6219516
28.82658 56.487053 5.3082294
29.110586 56.807766 6.210597
29.39895 56.801613 6.7424054
29.237425 56.93444 2.0892425
28.819525 57.020344 2.5767393
28.544437 57.126987 3.6038346
28.739737 57.417347 4.278524
28.812618 57.201572 5.3025007
29.17224 57.349125 6.2947893
29.296013 58.514908 2.7944188
28.946646 58.146843 3.499345
28.905634 58.11925 4.4033694
29.300034 58.43459 5.190601
29.384111 58.196754 6.069119
29.308043 58.819138 4.270773
29.847857 54.22742 3.626944
29.505613 55.13208 2.1442902
29.72667 54.616825 2.7069108
29.573164 54.499245 3.1680357
29.495462 54.652393 4.4578004
29.73834 54.889214 4.925343
30.24862 54.99572 13.581049
30.168804 55.12409 14.458147
29.614035 55.626663 1.8510866
29.551914 56.094154 6.2741666
29.858652 55.764465 13.759607
29.88028 55.687675 14.428652
30.077162 55.776184 14.943703
29.761467 56.79767 7.148761
30.245827 56.132854 13.11268
29.832111 56.428673 13.800237
29.767498 56.328976 14.405665
30.071531 56.50743 15.10827
29.694183 57.349216 1.8671575
29.550594 57.318 7.0184107
30.137615 56.986923 13.727839
30.021141 57.039093 14.42294
30.31649 57.276707 15.147783
29.489683 58.112778 2.2687604
29.808002 57.885715 7.077957
30.408407 59.479942 1.8214991
29.819439 59.40561 2.8391292
29.849058 59.438366 3.492286
29.958246 59.060314 5.5479417
29.938633 58.746815 6.101216
30.292276 59.993187 2.4847746
30.022247 59.745403 4.302499
30.372131 61.05708 6.119256
30.395826 61.33261 5.4265594
30.222206 61.60822 6.8277054
30.131367 61.823692 7.5391693
30.255693 61.7706 8.142474
30.378462 62.213387 5.077366
30.200474 62.441902 5.638007
30.10046 62.565136 6.610605
30.039993 62.289246 7.22939
30.21662 62.464638 8.225437
30.34428 63.219055 5.637504
30.32421 63.286465 6.307943
30.306686 63.17865 7.222405
30.329994 62.95816 8.190786
31.374123 52.93834 13.442254
30.509491 54.17955 2.8715458
30.51101 53.95361 3.3626003
30.438908 53.992744 4.143293
31.370407 54.09832 7.4849586
31.178675 53.628212 12.710879
31.283081 53.238773 13.497114
30.895996 54.171562 14.309575
30.43827 54.84573 2.091133
30.439924 54.564537 2.3528697
30.773956 54.73654 5.3919654
31.2933 54.625484 8.418182
31.349752 54.133717 11.780945
31.00704 54.47193 12.429671
30.6104 54.522923 13.7316
30.670937 54.680473 14.476915
30.603483 55.02118 14.924467
30.155104 55.851944 1.6362228
30.543818 55.63469 7.397959
31.046076 55.187027 8.214462
31.157358 55.26733 12.206659
30.505676 55.739822 12.88291
30.689468 55.54856 15.363786
31.117926 55.61571 15.69344
30.474785 56.333744 7.583301
30.766153 56.375942 7.700247
30.453348 56.195465 13.008418
30.420446 56.616837 15.462742
30.775133 56.52949 15.801794
31.315739 57.686855 -0.27518302
30.885942 57.29473 8.266013
30.699232 56.98039 13.173821
30.63499 57.37184 13.602195
30.410826 57.61 14.59542
30.641283 57.690453 15.456692
30.979395 57.483017 16.02149
31.10162 58.491714 -0.20912029
30.48162 58.71523 7.3031445
30.743172 58.112698 8.06812
30.706892 57.933323 14.480361
30.903791 58.20294 15.423213
31.050322 58.094578 15.868712
31.301842 58.996044 -0.77650166
31.346565 59.379467 -0.6233126
31.00816 59.432316 0.36529773
30.981491 59.98052 8.284877
31.14075 58.644783 15.30211
31.368408 59.823124 0.06433889
31.271555 59.84325 0.10876103
30.65387 60.3353 1.9987841
30.551392 60.420498 2.4192498
30.740665 60.398296 7.6474733
30.866064 60.870823 8.371022
31.312927 60.679913 8.778318
31.177086 60.702843 1.8861892
30.956459 60.735065 2.281653
30.753428 60.940296 3.3679476
30.734861 61.464397 4.6800947
30.527544 61.58485 8.464196
30.93493 61.826073 9.039396
30.878069 62.758377 4.63827
30.822556 62.41415 8.996204
31.18546 62.892197 4.39817
30.787727 63.283043 4.9268975
30.545832 63.52462 5.59087
30.525736 63.553932 6.7830763
30.549295 63.4998 7.494652
30.663797 63.30613 8.379161
30.99736 63.20963 8.819134
30.97611 63.72117 5.126514
30.883703 63.831665 5.566693
30.849684 63.845325 6.4699726
30.942394 63.838245 7.4816294
31.062466 63.72246 8.23692
32.233032 49.067074 7.9479446
32.189075 48.69673 8.55728
32.102947 48.783646 9.485768
32.25881 48.807236 10.123214
32.127495 49.54131 7.897651
31.758617 49.628994 8.798582
31.805403 49.600094 9.472833
32.05553 49.468227 10.279221
32.358376 50.156883 11.472849
32.01557 50.12362 8.095262
31.860512 50.22274 8.629144
31.799133 50.294796 9.467274
32.188538 50.58624 11.441844
32.016037 51.11814 12.506069
32.211624 50.917038 8.361716
31.942451 50.93771 9.614729
32.31825 51.788155 10.451229
32.016926 51.771122 11.412171
31.725073 51.925472 12.250175
32.007145 51.645412 13.207814
31.993773 52.124653 13.876152
32.358738 52.700153 7.1127253
32.08632 52.616756 7.3453693
32.381195 52.82902 9.8508625
32.158714 52.415005 10.577641
31.754168 52.3231 11.739176
31.573042 52.538723 13.562923
31.975502 52.7685 14.375131
31.212229 54.09689 2.801755
31.503351 53.89173 3.186879
31.05702 53.908607 4.08027
31.480942 54.2015 5.5905094
31.647875 53.992207 6.5951657
31.827053 53.705593 8.395357
32.124146 53.629 9.42734
31.59318 53.56386 14.497261
31.879606 53.84412 14.856364
31.353601 54.62878 2.197849
31.622797 54.36512 2.512686
31.837717 54.812428 9.297599
31.831165 54.517883 10.890837
31.288275 54.336395 14.594384
31.585468 54.794193 15.337647
31.67857 55.202805 15.619232
31.937101 54.978333 10.750015
31.350664 55.707447 12.408298
31.897245 55.900356 16.151087
31.80498 57.015 -0.14184557
31.707754 56.828716 0.5779984
31.47451 56.785927 8.571493
31.605095 56.391693 9.013441
31.664595 56.718327 16.331474
31.87021 57.686707 -0.99320483
31.568104 57.512833 16.362135
32.01028 57.5286 16.548391
31.658834 58.67805 -1.1398351
31.683846 58.182617 16.20783
31.828634 59.374084 -1.1886652
31.440926 59.600796 -0.6827744
32.201107 59.546013 9.207069
31.961592 58.725765 14.297649
32.012375 58.874428 15.627515
31.74344 58.723854 15.918323
31.944841 60.02631 -0.95698106
31.809723 60.162243 -0.5363235
31.593443 60.349365 0.37230566
32.07776 60.366196 9.366348
32.36923 61.03687 11.802334
32.383453 60.871986 13.971646
32.17397 60.635494 -0.13460425
31.50863 60.80238 2.0075324
31.389894 61.143696 2.6861937
31.395761 61.396255 3.3788567
31.402077 61.566998 9.191664
32.34892 61.542263 11.757626
32.29582 61.66541 12.622215
32.32651 61.71643 13.786743
32.317413 61.661415 14.536672
32.389065 61.629448 14.968759
31.466234 62.49786 4.255336
32.242157 62.743946 9.821862
32.39152 62.04367 11.829614
32.32517 62.071423 12.462553
32.350063 62.145206 14.292584
32.401173 61.94138 15.005918
31.347298 62.90109 4.3340807
31.43331 63.421703 4.611201
31.38942 63.346752 8.932885
31.526495 63.804775 5.001365
31.428282 64.051765 5.6051235
31.818186 64.27124 6.51065
31.82976 64.22024 7.5104647
31.662258 63.932175 8.261892
31.800934 63.6956 8.775687
33.226192 45.181637 5.396209
33.208557 45.225407 6.10865
33.220448 45.962948 3.7545607
33.056423 45.776924 4.541044
32.932938 45.64158 5.4685693
32.99947 45.675995 6.210721
33.306614 45.932384 7.011976
33.219704 46.65027 3.0130763
32.980865 46.529575 3.7161672
32.861797 46.3771 4.5926642
32.69993 46.480644 5.510346
32.730396 46.51094 6.159975
33.383327 46.287197 7.3983517
33.223385 47.17733 3.0379488
33.128185 47.337456 3.480787
32.94211 47.169857 4.156396
32.85661 47.175728 5.2996197
33.19919 47.18701 7.5712724
32.915245 47.840042 8.792759
32.66031 48.13077 9.415108
32.982445 48.081493 10.042042
33.297615 47.72926 3.4013271
33.18065 47.75465 4.9034457
33.097427 47.966045 5.951657
33.103596 48.707077 6.5248075
32.50282 48.550102 10.333243
32.685234 48.839672 10.803362
33.329514 49.172848 12.711243
33.051174 49.170776 7.043629
32.495388 49.741238 11.198623
32.89027 49.99774 12.724304
32.984272 50.000843 13.197052
33.359306 49.93206 13.784675
33.006546 50.580692 7.1788197
32.53112 50.687466 7.5584817
32.61153 50.350643 12.607141
32.71804 50.51194 13.311274
32.98897 50.8056 14.03355
32.789658 51.782192 6.988527
32.37798 51.847874 14.056991
33.4773 52.88857 -3.980579
33.41412 52.86187 -3.8318603
32.766853 52.519382 6.635701
32.42815 52.44072 14.560598
32.61636 52.565155 14.638011
33.4657 53.304604 -4.174758
33.441296 53.267796 -3.818231
31.945612 53.992455 3.554241
32.708603 53.586983 15.032283
32.186676 54.994198 2.2968686
32.385956 54.453377 2.8128004
32.959465 54.504913 15.451035
33.220036 55.687267 0.4741768
32.473854 55.584805 16.166292
33.095116 57.151115 -1.8811384
33.1664 56.535862 -1.4629109
32.597942 57.71021 -1.71734
32.905777 57.71974 9.560469
32.20371 57.846817 16.435556
33.344772 58.716484 11.728432
32.876987 58.944443 13.025791
32.402508 58.34732 16.20565
32.54019 59.35003 -1.637469
32.68762 59.755413 -1.5558153
33.21275 59.315006 10.561048
32.97706 59.741768 11.555074
32.80883 59.80551 12.499804
32.512997 59.149647 13.798761
32.48307 60.125587 -1.1596538
32.403755 60.473198 -0.65151054
32.569412 60.235184 11.611961
32.53713 60.415714 12.432628
32.79148 60.22111 13.29428
32.908226 60.73014 15.3486395
32.922005 60.742462 -0.22811967
32.647892 60.910408 0.4561614
32.66695 61.125427 1.5667337
32.707783 61.760212 15.353091
33.01297 61.576313 15.640308
32.33214 62.67135 4.1449666
32.83908 62.50402 10.927097
32.561443 62.433777 11.879156
32.606323 62.55032 13.825757
32.56738 62.46152 14.484456
32.918427 62.34543 15.35807
33.138634 62.29038 15.707644
32.137352 63.086155 4.268783
32.489605 63.319283 4.5915985
32.591442 63.024162 9.445215
33.081898 62.718445 10.98448
33.14161 62.94714 11.92406
32.819878 62.75127 13.025315
32.8746 62.869335 13.571822
32.866962 62.796627 14.56691
[...]
POINT_DATA 7850
SCALARS features_00 float 1
LOOKUP_TABLE default
0.6368009 0.638448 0.6162293 0.6217489 0.6024159 0.58269334 0.6827243 0.6847347 0.6370115 0.60073936 0.64326966 0.6575603 0.6585361 0.61569977 0.5735878 0.61663216 0.6194442 0.5541403 0.4820431 0.38829398 0.32840243 0.56279933 0.5594138 0.5491351 0.49731106 0.45232642 0.38674986 0.40211886 0.45085514 0.42579725 0.38027138 0.38707656 0.35460085 0.6517757 0.6593835 0.6597419 0.67973834 0.6278188 0.5440225 0.632241 0.6228805 0.62836176 0.3468545 0.7480328 0.74814856 0.7078237 0.28186458 0.64758885 0.75801456 0.79121596 0.7526183 0.47298145 0.31436 0.7261021 0.7512654 0.7119688 0.4102565 0.31640443 0.22199911 0.3003018 0.2968815 0.2931076 0.33684406 0.21954897 0.21493405 0.45659524 0.47586787 0.5461427 0.5667496 0.5387566 0.5567042 0.6055902 0.62283456 0.6213068 0.6398815 0.642251 0.65190405 0.65243715 0.6563803 0.2929624 0.58493775 0.5870043 0.5732041 0.09790074 0.3372535 0.31040415 0.3893987 0.5841327 0.5911164 0.3731441 0.10524284 0.1507139 0.3400749 0.5045684 0.48070067 0.5198096 0.5564432 0.19363827 0.13907723 0.3224989 0.57723 0.5753249 0.5207103 0.22209314 0.20856175 0.61741966 0.71312416 0.6715509 0.48175365 0.18731037 0.6133115 0.6424825 0.6810751 0.66819334 0.6444504 0.49642557 0.17916153 0.14870927 0.6128396 0.6249868 0.62077504 0.5297539 0.5218072 0.3997803 0.13667463 0.5832867 0.4568743 0.4466704 0.20571885 0.18589589 0.2713669 0.34218645 0.26790887 0.22955102 0.18200792 0.13095915 0.36503232 0.4819915 0.5000424 0.55511415 0.6044901 0.54549956 0.61255676 0.65568185 0.65340793 0.6462431 0.62967396 0.58367467 0.63991123 0.66313183 0.65851414 0.6233885 0.5834701 0.38553232 0.47705486 0.44196048 0.37497133 0.32406434 0.4518748 0.44465125 0.36516023 0.19973388 0.3118843 0.38695955 0.39402372 0.21034822 0.22928613 0.2539075 0.28020495 0.09546809 0.18048093 0.26027828 0.2539435 0.25136036 0.0283598 0.031739995 -0.059269965 0.029799853 0.19609553 0.27298173 0.24956419 0.52882576 0.51229316 0.5394943 0.22721514 0.012335151 0.06869246 -0.08894426 0.28768054 0.27188903 0.49984866 0.4929315 -0.061357006 -0.01125399 0.3624861 0.35028803 0.37445697 -0.017784923 0.353281 0.44453984 0.3328292 0.127349 0.16118942 0.13181628 0.5881212 0.49522203 0.5953402 0.5383009 0.55480593 0.56184524 0.55757 0.52567536 -0.0534962 0.4160375 0.50146085 0.5341463 0.547688 0.5208814 0.42453635 0.111298755 0.31378466 0.39834803 0.5008052 0.23146746 0.1402358 0.14236438 0.41746664 0.37201166 0.41715947 0.47872674 0.5390334 0.553198 0.48471594 0.23526865 0.3851475 0.42581224 0.5447159 0.5675339 0.53997433 0.59226656 0.51414454 0.62037605 0.65922475 0.65116453 0.56888735 0.50697577 0.44538057 0.63247037 0.59036463 0.7081444 0.681388 0.6457859 0.580346 0.48105925 0.7158396 0.71686757 0.6854776 0.63454473 0.5743513 0.40553766 0.6812892 0.6494088 0.62953466 0.5353645 0.31712386 0.30861047 0.3617343 0.27139452 0.5780517 0.42673284 0.24365613 0.057712406 0.32795426 0.26763272 0.22076344 0.10375006 0.2227741 0.1949666 0.21659806 0.24092396 0.060555227 0.1265257 0.18549481 0.20909232 0.21319073 -0.011939824 0.23001741 0.6549589 0.63657904 -0.00030316412 0.21550757 0.19888215 0.646383 0.6083774 0.4750163 0.17039393 0.40050527 0.39995188 0.16620922 0.044551626 0.29424524 0.34342343 0.20660245 0.47969776 -0.21065 0.50688994 -0.17781049 -0.06557317 0.45080936 0.57605845 0.5753182 -0.2486897 -0.03839015 0.056871135 0.021777337 0.56590664 0.5436283 0.107121564 0.20899858 0.16205929 0.45942563 0.504755 0.44945502 0.3497948 0.55509406 0.5260731 0.48759806 0.1610803 0.36332944 0.5204144 0.5665715 0.57673836 0.56394535 0.54396427 0.5506155 0.23588726 0.14199334 0.28424644 0.43706876 0.4907626 0.5755627 0.583392 0.5853599 0.60903 0.5751493 0.5106749 0.41811264 0.29175276 0.60383534 0.60325944 0.59417987 0.5680422 0.50321937 0.6837903 0.6683376 0.65654135 0.54188526 0.43441054 0.32667252 0.6474662 0.68678486 0.1378284 0.7853191 0.84112805 0.6146138 0.6476089 0.12172139 0.74040675 0.8197948 0.5187688 0.38900626 0.30084318 0.24105544 0.2831617 0.28194976 0.2275263 0.043601744 -0.016408063 0.24439353 0.2551129 -0.11737488 -0.0032264367 0.21647859 0.19680431 0.7306729 0.67640257 0.5769391 0.1723772 0.7704284 0.7244719 0.6242823 0.5080108 0.29768834 0.3066947 -0.049596816 0.7414284 0.6805 0.5482705 0.48055267 0.26999936 0.2697869 0.15837823 -0.009558231 0.6351328 0.4865347 0.27115154 0.18726848 0.21650992 0.2092362 0.119614735 0.09519274 0.14801711 0.12583631 -0.4857579 0.40173194 -0.46099967 0.30210727 0.47664344 -0.32376733 0.23112635 0.515777 0.5557668 0.5322925 0.1351762 0.41312048 0.38103694 0.3085391 0.5126545 0.36018974 0.5767159 0.54032904 0.46407145 0.068323106 0.029955626 0.14107056 0.2801187 0.4248408 0.5670316 0.5823506 0.55411714 0.5238652 0.47440797 0.5105304 0.48483086 0.32142287 0.1366204 0.5036238 0.52379555 0.5088993 0.5260352 0.54154056 0.56253964 0.5161504 0.44801903 0.35138297 0.7452096 0.82668096 0.9005914 0.616771 0.60375595 0.30408067 0.5960511 0.69453466 0.7900481 0.888798 0.9484704 0.57338804 0.13043864 0.046589535 0.5729358 0.6063843 0.67106175 0.812535 0.8818135 0.92587364 0.49872655 0.051074985 0.16494487 0.27983862 0.56715596 0.6228847 0.6459725 0.7336852 0.81649804 0.89539385 0.36298895 0.27270436 0.5486345 0.57629836 0.6274227 0.62832195 0.76083016 0.22564203 0.06892069 0.22008945 0.23193486 0.5248503 0.61093014 0.5905069 0.5084694 -0.25980383 0.16878332 0.31550878 0.39264625 0.43573946 0.21617043 0.7291188 0.70255744 0.63182 0.4982434 0.28715405 0.26356846 0.27712953 0.45090562 0.50052273 0.51394063 0.3355105 0.75025016 0.28180093 0.19032796 0.074579015 0.32519498 0.5251892 0.5520079 0.52992743 0.4298002 0.70785797 0.11624624 -0.15061818 -0.1595619 -0.07965788 0.524211 0.5271708 0.49014646 0.5956036 0.59773695 0.066571616 -0.1151943 0.4659295 0.48088887 0.51589364 0.031604208 -0.011339754 0.052094787 0.25581378 0.028107285 0.3813376 0.37720275 -0.048495263 0.39724803 0.31239435 0.22789928 0.30799925 0.37829223 0.13343588 -0.18843192 -0.27048904 0.36096966 0.2555256 0.46575755 0.30907106 0.1388104 0.22918382 0.5235186 0.49185997 0.5027274 0.39477536 0.38220125 0.08668517 0.0019652164 0.049972065 0.11608475 0.14108717 0.46382385 0.44918782 0.43937445 0.4082663 0.41223747 0.42707315 0.37656748 0.3046639 0.71071506 0.82517236 0.9149341 0.9561895 0.39267057 0.39845145 0.26602674 0.14670704 0.4861049 0.5765594 0.6371933 0.96612036 0.4124746 -0.027759861 0.0750817 0.14549612 0.49342507 0.9246141 0.8691114 0.41003358 0.39701316 0.050712436 0.12981793 0.17460772 0.31731218 0.86842453 0.40118843 0.33839524 0.30140167 0.25320053 0.13494761 0.47715467 0.674143 0.2007909 0.18982685 0.11617113 0.08229495 0.15370068 0.10933861 0.19089946 0.157648 0.3164699 0.40282232 0.53802884 0.4665429 0.34497368 -0.031749167 0.21665213 0.22517633 0.18014474 0.20950247 0.27598637 0.08574627 0.6113376 0.3987967 0.2289936 0.05820907 -0.091566294 0.16845569 0.19895925 0.25482553 0.19354862 0.61456263 0.6017058 -0.0832608 -0.15398635 0.037609145 0.044417284 0.10916965 0.08023749 0.20953952 0.62301946 -0.22402273 -0.32003233 0.008999847 0.038932566 0.22724313 0.36844128 0.56647646 0.56750774 -0.19720441 -0.30113992 -0.101423316 0.41698205 0.46871278 0.4264081 0.31507677 0.41941977 0.28191218 -0.1186398 -0.16873737 0.04172275 0.0047227796 0.011192166 -0.099881284 0.35875696 0.44462255 0.040354975 0.18514478 -0.05075501 0.20336871 0.32533643 0.5261103 0.5676976 0.56917614 0.12083374 -0.06310187 0.46216625 0.6393807 0.68893135 0.635636 0.1644452 -0.071869634 0.5904186 0.67169785 0.69869906 0.6685537 0.27281988 0.16605622 0.5534282 0.6245638 0.6570462 0.65555876 -0.19977278 -0.32066992 0.020715177 0.082488135 0.06300648 -0.020597927 0.085679255 0.11598328 0.0172302 -0.010722254 -0.021104012 0.021732926 -0.012226659 0.38644254 0.39098272 0.37431875 0.34829777 0.36378145 0.33450186 0.27274626 0.73016423 0.8305528 0.88358736 0.9020082 0.5264694 0.2016916 0.23218654 0.21730748 0.14423198 0.20966586 0.22157888 0.39541247 0.86557186 0.52625906 0.45049158 0.026854701 0.08807349 0.18345083 0.20322959 0.2117806 0.27046502 0.8379425 0.8257309 0.4558745 0.1691063 0.17029063 0.73787487 0.7559326 0.41106334 0.022021912 0.04798533 0.068546966 0.06861294 0.48415554 0.6640018 0.34428558 -0.20131429 0.13011558 0.12941536 0.07970568 0.18736956 0.2261994 0.44874427 0.4467138 0.41745687 0.32780004 0.12543738 -0.116114505 0.0005527437 0.1329896 0.0665752 0.4743812 -0.4136391 0.03178057 0.17270634 0.31043476 0.46741036 0.4867139 0.20207311 0.20986961 0.28309825 0.5580951 0.6266405 0.5250545 -0.19566894 -0.044465348 -0.07033944 0.27707574 0.19710875 0.21596356 0.34054497 0.52836037 0.61433005 0.5038371 -0.22757272 -0.2034442 -0.118342616 0.35123762 0.3009697 0.21601489 0.29996225 0.5052762 0.36358988 -0.23744018 -0.163378 -0.13124253 0.068172574 0.021939404 -0.27161324 -0.064842045 -0.01910581 0.30378905 0.39513656 0.02774088 0.029237762 -0.16563918 -0.2980805 0.041051906 0.49345344 0.021411635 0.017238483 -0.22045803 0.21359761 0.59103703 0.551314 -0.038338296 -0.1865535 0.2824735 0.4115053 0.62246317 0.5834979 -0.11872545 -0.12457876 -0.05272632 -0.09210134 0.47743016 0.570462 0.6193123 0.60204476 0.5732496 -0.05108972 0.0003771931 0.45888013 0.48822987 0.5666275 0.54180515 0.1794403 0.052935433 0.021778762 0.18612221 0.12180588 -0.017588295 -0.053634934 0.078801185 -0.055624288 -0.07058157 -0.068360366 0.25021914 0.24518406 0.27366024 0.41486534 0.3536995 0.36641082 0.2567491 0.3310086 0.35049355 0.3093632 0.60557306 0.6931774 0.79460984 0.5866948 0.5578072 0.28846475 0.12420551 0.16703641 0.16047277 0.14579226 0.18253787 0.21873753 0.21182217 0.18665941 0.26672983 0.29969037 0.65773904 0.70837474 0.80089533 0.5503204 0.5742935 0.20929289 0.17917533 0.12297445 0.20528936 0.7544787 0.5307261 0.18055323 0.079708055 -0.019179944 0.04509343 0.6504888 0.37843674 0.43401453 -0.043538265 -0.09003618 -0.053370647 0.24248964 0.5292319 -0.012413435 0.14410916 0.41047877 0.38353342 0.3260305 0.24505419 0.103118725 -0.16637936 0.13774398 0.37645972 0.5186515 0.63686466 0.33057874 0.67312235 0.718019 0.3585161 0.5726969 0.6756114 0.7300199 0.43287563 0.2797132 0.1055626 0.19807695 0.5079617 0.6365421 0.1773214 0.16233173 -0.0022422373 0.2404281 0.40931427 -0.021498218 -0.06558584 0.46688485 0.32085282 -0.106808856 -0.18888924 -0.2725191 -0.036998495 0.48931807 -0.21257922 -0.13890648 -0.174366 0.004450783 0.22004846 0.4946242 0.47638902 -0.06965473 0.07460275 0.17449474 0.2743973 0.33218402 0.42845914 0.4467685 0.03022522 0.13924545 0.04924039 0.1626259 0.24566126 0.13510111 -0.0799836 0.15574752 0.06652975 0.2679738 0.10032344 0.018884731 -0.07646926 -0.09207853 -0.09650424 -0.09948446 0.050037213 0.24780726 -0.060029507 0.15453994 0.483555 0.4370774 0.37581265 0.46515095 0.5018014 0.48758543 0.3044132 0.24824499 0.3071996 0.32307476 0.2836554 0.23170628 0.23542187 0.18996999 0.19288723 0.1746413 0.5985273 0.5729426 0.3512702 0.16811855 0.18638574 0.18563119 0.20145462 0.22452109 0.19152522 0.07889889 0.15060744 0.20712668 0.2026015 0.16908306 0.12943545 0.17442198 0.1498326 0.24445994 0.44971782 0.47419798 0.6480794 0.5859214 0.59300625 0.10201314 -0.16773444 -0.10825017 -0.16847412 0.008741707 0.5967216 0.6905848 0.55779773 -0.08575989 -0.18927433 -0.15778102 -0.19384189 -0.13791445 0.36061856 0.22815444 0.14375511 0.11873247 0.046032608 -0.028160907 0.35450417 0.34224543 0.2821654 0.18275571 -0.0077933073 0.30788833 0.3013368 0.5354068 0.59955215 0.71080434 0.15461336 0.25837445 0.68638396 0.7488773 0.25251007 0.7744217 0.17927264 0.65778124 0.7498016 0.1801419 0.1520685 0.034790978 0.1978254 0.42426676 0.5442317 0.47199923 0.052851498 -0.08345617 -0.015419617 0.043928213 0.5342957 0.45297313 0.21188776 -0.060568135 0.5214922 0.16520181 -0.11261034 0.3136141 -0.33933777 0.37320298 0.56254554 0.37361988 -0.20472541 0.37114638 0.37404028 0.6083435 0.5521793 -0.08699249 0.1652739 0.17942354 0.31530207 0.36193144 0.37634242 0.6177285 -0.024660517 0.043462515 0.2797159 0.24190347 0.17927092 0.14084947 0.106561035 0.10693192 0.2665523 0.29821023 0.10327323 0.03808792 0.019698832 0.2335774 0.022326583 -0.05360168 -0.069706276 0.0047398712 0.22546017 0.41716278 0.3260209 0.36087197 0.46317312 0.50500286 0.49196884 0.47461826 0.48866805 0.31213638 0.2807232 0.29762694 0.29516396 0.24360615 0.19634497 0.22285743 0.16564941 0.23160216 0.24833627 0.18692058 0.16755919 0.09168121 0.11372672 0.5628743 0.5380939 0.4494847 0.27565104 0.23937863 0.24923214 0.19320941 0.20461005 0.20563674 0.12847392 0.06680222 -0.014613144 0.05243386 0.05912339 -0.021138594 0.003951356 0.07802099 0.5470626 0.5207415 -0.14916521 -0.035299335 -0.10933041 0.46920887 0.42194033 0.16467237 -0.0950369 0.16591573 0.15763277 0.27584717 0.24759325 -0.0055761114 0.21157329 0.6664015 0.18539223 0.75082123 0.100336015 0.75701064 0.012744557 0.7148464 0.25613487 0.23488653 0.47916597 0.3954577 0.26014414 0.60750306 0.17533633 0.28403628 0.33265585 0.5861225 0.543602 0.44837943 0.30791953 0.5036064 0.41831744 0.2705984 -0.23842168 0.44675708 0.26633555 0.28415614 0.25909895 0.60786605 -0.043711603 0.25237653 0.28319144 0.30213463 0.6338434 0.63939023 0.5657389 0.4303338 0.30696225 -0.09606298 0.22878978 0.21002284 0.2667874 0.6081693 0.58051467 0.43521702 0.0097337635 -0.026123324 0.26358134 0.28216258 0.24550807 -0.033617616 -0.0011688182 0.21008289 0.16221096 0.034330137 0.13439858 0.11404775 0.04035091 -0.13741806 0.060659707 0.37703347 0.2783931 0.16127793 0.14733878 0.09016892 0.07109633 0.34800002 0.43225935 0.4495926 0.43049037 0.45726246 0.33159882 0.36601233 0.34892476 0.21928741 0.30299243 0.33422577 0.30953234 0.19897264 0.08421824 0.08279795 0.109713525 0.18791476 0.2439069 0.122288495 0.07027784 0.10558057 0.115119584 0.10401269 0.07988304 0.4777348 0.40414742 0.2807659 0.29771203 0.3123418 0.29327542 0.25285304 0.18035641 0.13204664 0.093730494 -0.1013882 -0.0873021 0.04620923 -0.04105331 0.041544884 0.09626884 0.36515743 0.29701167 0.2887697 0.2708361 0.2438959 0.15647136 0.047925204 -0.0018781424 0.17958035 0.21821018 0.21357189 -0.09990342 -0.03546816 0.17685765 0.12663731 0.12897605 0.16129008 0.1729494 0.17026204 0.1511495 0.10475775 0.01642467 0.5051841 -0.03149222 0.68881106 -0.025936998 0.5950509 0.6918941 0.048194848 0.48549172 0.29126143 0.29333043 0.27414146 0.49081188 0.27976623 0.6016382 0.41345116 0.41157997 0.59760773 0.41999862 0.44088072 0.44239068 0.5452498 0.5143825 0.45693785 0.1101343 0.1690093 0.35313624 0.41913414 0.44818357 0.32013038 0.0911852 0.4792546 0.54297286 0.22405037 0.20871219 0.59868455 0.14267483 -0.049608685 0.18592975 0.20904806 0.5909622 0.5935736 0.51666343 0.32858664 -0.038265742 -0.10919729 0.17559022 0.23697425 0.19746184 0.011347055 0.012068372 -0.027428968 -0.056387868 -0.09162219 -0.017092543 0.0451454 0.2119107 0.05867323 0.14040901 0.17803939 0.16216034 0.12473184 0.08814762 0.030351033 -0.0032475889 0.15468833 0.32764366 0.32043716 0.15111795 0.36332315 0.36947846 0.3641602 0.3466699 0.29626277 0.2300978 0.3093989 0.34797764 0.3479464 0.27151567 0.19738686 0.028346363 0.19582343 0.28757784 0.13419746 0.0072618425 0.05809717 0.05831661 0.189203 0.19062574 0.07049765 0.14940159 0.13538533 0.14917488 0.16220585 0.27996746 0.29240206 0.29996386 0.28790677 -0.04606816 -0.053028464 -0.12859735 -0.15534118 0.076867014 0.21223676 0.25188243 0.27444673 0.26351884 0.23710752 0.2408554 -0.026727378 0.051768206 0.19546887 0.12086957 0.14317256 0.14809349 0.16990119 -0.07180849 0.084740385 0.03268615 0.062204525 0.022883803 0.19551775 0.31790316 0.34023565 0.16696498 0.16698845 -0.04158365 -0.54872876 0.10937386 0.21226192 0.21282695 -0.014436528 0.09804638 -0.0200871 0.063154034 0.03591194 0.3217613 0.4326768 0.30657175 0.5703672 0.3692267 0.541029 0.45498693 0.44252145 0.5154822 0.47651145 0.40028697 -0.054084376 0.28871787 0.40207636 0.4547796 0.45811093 0.087067336 -0.08992843 -0.071467 0.3237388 0.36301398 0.45590276 0.1699322 0.51204085 0.16168723 0.1899335 0.5619817 0.5427911 0.40331155 0.26915932 0.072639965 -0.052799962 -0.32564473 0.1282212 0.15965769 -0.017876744 -0.068126254 0.01346397 0.027901966 0.041195057 -0.015666217 0.093563884 0.019147191 -0.036120173 0.08235343 0.13125509 0.2663881 0.1558213 0.14311306 0.11385919 0.09872316 0.0944525 0.05974748 -0.0657723 0.22345825 0.25919032 0.25921103 0.29108876 0.32002074 0.26325452 0.21446508 0.18472545 0.25660354 0.016737549 -0.045095347 0.06472862 0.1268943 0.17699654 0.12229728 0.18003514 -0.020716501 0.14006189 0.17742053 0.19142161 0.041434035 0.17305662 0.13935712 0.0012746453 -0.19922653 0.2635371 0.05911705 0.057411104 0.17524293 0.23861638 0.49494106 0.53325325 0.15669447 0.1865265 0.17002931 -0.021113522 0.021645524 0.20212723 0.27389428 0.34755635 0.41833356 0.51213187 0.54282403 -0.04456092 -0.07122787 -0.08603982 -0.08053762 -0.1357378 -0.1529873 -0.06297443 0.28145176 0.30738997 0.39010248 0.3786251 0.11540577 -0.009382807 -0.0585721 -0.1483255 -0.104258984 -0.55504435 0.27490097 0.23907739 0.024537742 -0.04254184 -0.22451301 -0.15475857 0.21819216 0.17634684 0.1611417 0.14397526 -0.012926996 0.14757428 -0.0729984 0.09661394 -0.066645354 0.04142833 -0.12356013 0.1297578 0.2703757 0.35638016 0.42362148 0.37991527 0.40641928 0.37286347 0.42387745 0.37232772 0.40180534 0.43484578 0.44825697 0.040132657 -0.25457966 0.036873892 0.1726309 0.24462268 0.36386636 0.3118071 0.061033003 0.32923728 0.4066478 -0.019725539 0.089401275 0.4688043 0.49792093 0.3783326 0.14379416 0.040699795 -0.28033394 0.26601753 -0.11840234 -0.15067492 -0.15805127 0.005392771 -0.17488721 -0.23111714 0.07539022 0.08771885 0.23847663 0.26624453 0.2848968 0.23473708 0.10439327 0.06615849 0.033428535 -0.026416555 -0.05873414 0.15541007 0.14308348 0.21344142 0.2729384 0.29165873 0.27928358 0.2494053 0.18623145 0.17386153 0.13455963 0.06341897 0.051660206 0.067482986 0.15734863 0.18871894 0.24291971 0.15884966 0.0021903329 0.02967738 0.095150076 0.13724393 0.1362601 0.20294452 -0.07075478 0.03777914 0.15465033 0.172818 0.16151062 0.05949403 0.1285581 0.18179736 0.22220084 0.16797036 0.19685155 0.21116342 0.20067509 0.07877097 0.23727569 0.05412181 0.10757944 0.19001055 0.26944086 0.48245484 0.54911995 0.5425409 -0.005967438 0.040465172 0.29902732 0.31409588 0.37648457 -0.12303405 -0.04605052 -0.025107145 -0.07838704 -0.3753078 -0.15753534 0.34133536 0.28996307 0.41183257 0.24009341 -0.16343825 -0.19807835 0.277718 0.20367253 -0.14639899 -0.42489 -0.21782683 0.19919339 0.112792194 -0.44308737 -0.3183992 0.07714509 0.13563874 -0.13369913 -0.0994186 -0.17371464 0.067047164 0.11830012 -0.0032043532 0.4974802 0.1157487 0.20010306 0.33847386 0.07767166 0.1747886 0.08268049 0.23790051 0.31497303 0.19444175 0.051738694 0.29438946 0.36744946 0.0008556619 -0.13643938 -0.28589106 0.1265277 0.23723616 0.31097323 0.20428275 0.050768428 -0.16115499 -0.082032815 0.27794293 -0.08130704 -0.019203223 0.40571624 0.3468678 0.2678471 0.16204566 -0.16274865 -0.09474719 -0.078011945 -0.10807887 -0.18813917 0.045831986 -0.11455997 -0.04240197 0.07826649 0.17737362 0.21903636 0.19602472 0.09495527 0.13811791 0.077564076 0.14176355 0.22128898 0.23728727 0.15113887 0.22974303 0.01831624 0.0096946955 0.00495708 0.18046923 0.27719775 0.266799 0.24521753 0.25279027 0.27344507 0.26885206 0.25900662 0.17035016 0.09851718 0.07042177 0.2433452 0.30588743 0.32523364 0.32881323 0.25372046 0.2679944 0.25695103 0.19872761 0.08069357 0.13998444 0.17473568 0.1986806 0.19041619 0.6783421 0.654987 0.62630355 0.012195952 0.059801795 0.08095977 0.13542314 0.13035005 0.07317883 0.15479809 0.14664489 0.6316663 0.6816845 0.67676294 0.61187696 0.55595 0.031899482 0.08710853 0.12384326 0.15012467 0.13606235 0.5439497 0.5642873 0.5969206 0.5976616 0.5247169 0.025021438 0.13635871 0.4454633 0.45117202 0.45169598 0.4656932 0.4314735 0.47217897 0.3904649 0.3074121 0.2936839 0.29944998 0.32085803 0.32254508 0.2236396 0.21954866 0.20502172 0.10599962 -0.11092383 0.4826663 0.4685 0.390262 0.28948528 0.010601729 0.22696795 0.2211952 0.31383315 0.4336011 0.45