# vtk DataFile Version 2.0
Really cool data
ASCII
DATASET POLYDATA
POINTS 2763 float
24.392307 22.75938 -1.1821675
24.341537 22.774704 -0.6520442
24.376495 22.990705 -0.1345982
24.32057 23.51996 -1.2673272
24.248661 23.54305 -0.5463257
24.36938 23.661001 -0.04192464
24.36475 24.085321 -0.96057117
24.357298 24.16437 -0.5242022
24.32778 32.801315 -4.1974707
24.315863 32.717525 -3.5384269
24.40163 32.805847 -2.9964304
24.290817 33.520035 -4.21552
24.228018 33.416096 -3.5910277
24.358576 33.257896 -3.020701
24.442385 34.41505 -4.2789884
24.384918 34.1194 -3.581935
25.124811 22.14024 -1.8159953
24.896776 22.028877 -1.2648071
24.976099 21.820887 -0.5884766
25.052752 21.97156 0.009694427
25.053522 22.719568 -2.099932
24.53964 22.636795 -1.3986684
24.548088 22.37464 -0.5764967
24.753325 22.62324 0.21584818
25.152391 22.974482 0.77606267
24.876736 23.417044 -2.0591679
24.501759 23.138151 -1.5844971
24.756401 23.397049 0.41881508
25.076508 23.330378 0.67556304
24.66843 24.28917 -1.3569736
24.5448 24.449772 -0.5947438
24.650923 24.095613 0.104447186
24.84462 24.734592 -1.0840682
24.926779 24.935537 -0.54403996
25.212435 31.280087 -3.9263458
25.273193 31.14631 -3.1017535
25.286808 32.130405 -5.0760784
24.998423 31.801315 -4.2794847
24.70745 31.939997 -3.7233858
25.119944 31.719585 -2.7345283
24.855654 32.871044 -5.037771
24.566454 32.63326 -4.4307704
24.47034 32.3378 -3.74076
24.546661 32.76194 -2.7522023
25.051924 32.749878 -2.1929498
24.816404 33.89484 -5.262759
24.463484 33.535557 -4.6184297
24.613747 33.50822 -2.682537
24.9828 33.406097 -2.2000456
25.186136 34.65091 -5.785834
24.778725 34.583076 -5.289739
24.509192 34.734596 -4.2490544
24.534653 34.200638 -3.3778818
24.649525 33.931824 -2.7990463
25.172045 35.311455 -5.6470575
24.894836 35.368595 -5.236109
24.702887 35.411575 -4.667001
24.667809 35.003742 -3.784968
24.946135 34.8572 -3.2059712
25.09253 35.858402 -5.173488
24.981888 35.872547 -4.5758486
25.66844 21.464714 -0.45851123
25.561462 22.107977 -1.8972759
25.55025 21.742468 -1.34764
25.462265 21.581295 -0.6636646
25.542877 21.72954 0.03575623
26.010046 22.257631 0.7311953
25.824814 22.988516 -2.5757463
25.44557 22.57294 -2.2579348
25.243416 22.438122 0.57678866
25.732443 22.805347 1.0458549
25.674524 23.32831 -2.57564
25.465601 23.13305 -2.504934
25.741108 23.500591 1.2366558
25.690468 24.38738 -2.179188
25.764921 24.27969 1.2106174
26.153875 25.48441 -1.757277
25.666513 25.670805 -1.0666322
25.42702 25.420067 -0.8963967
25.99355 26.252172 -0.62376493
26.282219 25.882921 0.7848112
26.053854 30.288462 -3.462665
25.97164 31.150234 -5.0021763
25.876001 30.70582 -4.2143273
25.4677 30.9746 -3.7866352
25.672756 30.709885 -2.770725
25.992378 30.938965 -2.263084
25.416317 31.657373 -4.7051625
25.403383 31.32552 -2.6318283
25.823458 31.736328 -1.9835727
26.200546 32.45784 -6.018124
25.446339 32.37775 -1.9738444
25.524952 33.236736 -1.7779089
25.786005 34.403297 -6.24122
25.434338 34.655872 -2.5500882
25.53927 34.433548 -2.2627065
25.710165 35.352905 -5.926732
25.524313 34.901356 -2.767315
25.682835 36.033257 -5.425599
25.394192 36.239586 -4.5758014
25.413591 36.0718 -3.9523668
25.966568 21.49416 -0.6696345
26.266434 22.037422 -1.8766508
26.308983 21.715454 -1.2082669
26.596859 21.587646 -0.54500794
26.531822 21.822836 0.2780279
26.272615 22.290285 1.023364
26.105146 22.93523 -2.5481756
26.277431 22.637156 -2.3493385
26.64653 22.604683 1.2496114
26.164494 23.44917 -2.5793335
26.573267 23.875414 -2.4862256
26.21879 23.916758 -2.5201025
26.80883 24.325068 1.8874066
26.561554 25.254633 -2.0712106
26.453247 25.181545 1.6180792
26.799543 25.341927 1.8065801
26.96457 26.10619 -1.9428841
27.05812 26.66629 -1.442658
26.65682 26.28897 1.0536343
26.92692 25.91252 1.7062941
26.80957 26.753332 -1.2891536
26.730322 27.193892 -0.3491726
26.9483 27.303005 0.5053909
27.160997 27.251501 1.1745695
27.409391 29.244253 -2.479844
27.03697 29.954403 -4.677357
26.765926 29.787199 -3.7424595
26.69017 29.932095 -2.5908618
27.43933 29.569435 -1.4467801
26.524616 31.020098 -5.3313856
26.639132 31.190557 -1.5577798
26.611979 32.659344 -6.3274393
27.16302 33.694595 -7.1215425
26.526808 34.667423 -6.4790316
26.724352 34.34511 -1.9021487
27.39792 34.622902 0.60728085
27.321537 34.63572 1.1572315
26.342062 35.100876 -6.2753987
27.194784 35.914227 0.5560691
26.953445 35.83898 1.4704376
26.926352 36.0865 1.9431536
27.350857 36.05612 2.8900812
26.340746 36.18927 -5.1464663
26.910503 36.278522 -4.599838
26.46989 36.12266 -3.8843107
26.966314 36.230453 0.8839266
26.920088 36.582195 1.4441919
27.047863 36.428375 2.3957813
27.26859 36.503986 2.8577363
27.237194 37.023067 0.68933153
27.131107 37.2572 1.6000609
27.226467 37.213562 2.306132
27.22762 36.97806 2.7551832
27.13828 39.031055 -6.130195
27.280966 38.78189 -5.0173774
27.35238 37.68574 1.9177566
27.24016 39.48721 -6.1926007
27.118296 39.461685 -5.4760528
27.2175 39.617214 -4.9185543
27.337133 40.0223 -5.885451
27.280813 39.999424 -5.6887517
27.347097 39.934635 -4.8921223
27.081194 21.965197 -1.2687846
27.209122 21.82167 -0.7015915
27.230711 22.575989 -1.9289457
27.098846 22.39159 -1.5394968
27.370876 22.780054 1.5245352
27.214638 22.881659 1.6652422
27.305426 23.554956 -2.2805629
27.386145 24.926773 -2.5245564
27.847265 24.734991 2.2030141
27.464434 24.975622 -2.417059
27.401415 25.481028 2.2702053
27.80243 26.623825 2.3313644
27.830479 26.039354 2.5688982
28.406256 27.898298 -5.5009484
28.390362 27.628294 -4.8092623
27.704187 27.561996 1.7103056
27.89731 27.653305 2.0062833
28.11286 28.317287 -5.168346
27.65687 28.978233 -4.28369
27.424421 29.262108 -3.8173823
27.557772 28.525572 -0.37482935
27.639462 28.603685 0.7135929
27.590933 27.820036 1.5820007
28.279755 28.108053 2.2889946
28.435116 29.063644 5.3142004
28.398504 29.10362 6.561302
28.220604 30.201708 -7.350099
27.77828 28.761305 0.2867204
28.35834 28.891647 1.8539002
28.26104 29.592537 5.8056903
28.301033 29.580702 6.602833
28.389963 29.724098 6.9022527
28.296362 30.728329 -8.112227
27.90327 30.334467 -6.5878825
28.094767 30.130226 0.26772213
28.302279 30.962198 1.0781512
28.41248 30.076637 4.9167843
28.34185 30.342382 6.341267
28.31413 31.847 -8.873463
27.981102 31.634207 -8.298469
27.599215 31.178724 -0.68137157
28.222893 31.885386 0.59946525
28.387827 31.725124 1.2610896
28.185871 32.22013 -8.823428
27.89664 32.527176 -8.332756
27.53385 32.211884 -7.6020703
27.883951 32.951958 1.1287903
28.340025 32.953396 2.6751115
28.296127 32.90944 -8.790731
28.11872 33.29058 -8.253062
27.681534 33.53999 -7.5242605
27.87804 33.272198 -0.112709664
27.823997 33.122734 0.09702878
27.61051 33.7287 1.2217795
28.041412 33.506664 2.5966332
28.12939 33.94439 2.9192724
27.644108 34.098404 -7.34581
27.471992 34.603752 -2.0510778
28.338488 34.53363 -0.7946389
27.597551 34.12361 1.20728
28.194118 34.888966 3.1757214
27.789576 35.599525 -0.115879565
27.61255 35.48968 2.958346
28.305279 36.68301 -2.473735
27.611282 36.687973 0.12940523
27.658842 36.42319 3.1704311
28.418953 38.017178 -10.004554
28.37697 37.885662 -9.618091
28.091135 38.074314 -8.734038
27.81132 37.810764 -7.272774
27.864918 37.54348 -4.4576373
28.192493 37.58946 -3.611078
28.093262 36.895046 -2.6983023
27.66553 37.098053 0.20887855
27.466753 37.380722 0.68500465
27.515009 37.445602 2.5005665
27.787304 37.118736 2.9936576
28.414423 38.48532 -11.201618
28.270266 38.37749 -10.217995
28.173822 38.356506 -9.408132
27.882448 38.557915 -8.393232
27.598677 38.31646 -7.198586
27.597815 38.894352 -4.404039
27.766113 37.927963 1.1224368
27.756765 37.951954 1.4635755
27.839037 37.907684 2.2297325
28.392271 39.951656 -13.858522
28.243046 39.464584 -10.720793
27.910654 39.035633 -8.9230795
27.78231 39.299423 -8.205808
27.567259 39.339836 -7.5923195
27.442993 39.658745 -4.5450816
28.400131 40.68508 -14.793325
28.35917 40.621593 -14.532291
28.32228 40.53905 -13.67188
28.432535 40.563805 -12.424122
28.025957 39.918285 -8.32074
28.022688 40.23258 -7.326059
27.70607 40.303394 -6.399936
27.563429 40.32879 -5.4358754
27.722303 40.128822 -4.6337996
28.16191 40.101246 -4.21586
28.262875 41.154884 -14.320581
28.39019 41.187412 -13.381751
28.47587 41.62777 -12.618301
28.463413 41.148518 -11.801475
28.095171 40.734455 -6.1690097
28.032331 40.741455 -5.4034247
28.141087 40.67416 -4.9556046
29.071674 21.046825 0.9207678
29.188452 20.68814 1.7187485
29.000584 20.94852 2.1989508
29.297485 21.197433 3.058201
28.755926 21.67068 0.6612878
28.699108 21.280897 2.0420735
29.057455 21.694574 3.0569036
27.854776 22.70875 -1.6630669
28.514174 22.70557 -1.1178284
29.371065 22.537981 3.9738548
29.284302 23.343927 3.3400118
29.337807 23.300306 3.8589675
29.00576 25.244371 2.9962385
29.37119 26.68682 -7.347326
29.001507 26.81186 -6.4395666
28.892164 26.835325 -5.4873223
28.821447 26.417425 3.0740361
29.304976 27.900257 -7.1748505
28.718786 27.809782 -6.203875
28.58005 27.721912 2.9579456
29.324383 27.834164 7.048696
29.017265 28.11621 -6.8666034
28.46582 28.554184 -5.9630113
28.669699 28.873516 5.0124846
28.587255 28.833126 6.713285
28.891098 28.705595 7.169788
28.887909 30.183496 -8.235394
28.453535 29.801779 -7.392968
28.547571 29.605299 1.4105244
28.734058 28.91784 2.371036
29.01574 29.303413 3.8829226
28.625256 29.53001 7.22566
29.192026 29.388577 7.7404723
28.692747 31.135117 -8.814618
28.8349 30.677094 -8.560021
28.68942 30.629156 1.586156
28.647825 30.146969 4.2054906
28.637953 30.103271 4.4096355
28.46006 30.392641 6.639435
28.797588 30.364157 7.225556
28.614454 31.42798 -8.884154
28.742275 31.827328 2.5884404
28.605766 30.856739 5.170622
28.706905 31.054066 6.351928
28.812582 30.78656 7.053956
28.778662 32.383595 -9.219887
29.222677 31.633106 5.6391425
29.219479 31.622452 6.05792
28.80562 33.10841 -9.090464
28.654816 33.28049 3.12328
29.271524 34.07735 -8.628562
29.030285 34.557217 3.4200692
28.559021 35.390778 -1.6983867
28.591925 35.628906 3.3458362
28.744066 35.941784 3.5357378
28.788872 36.980465 -8.363852
28.586065 36.84421 -7.492203
28.53579 36.479424 -6.6736445
28.593775 36.68205 3.3901768
28.450771 38.12908 -10.837919
[...]
POINT_DATA 2763
SCALARS features_00 float 1
LOOKUP_TABLE default
0.9438927 0.91212636 0.86005586 0.8787022 0.85419416 0.8188944 0.8020049 0.7961834 0.60265213 0.61212635 0.6076244 0.61666405 0.6178922 0.6099751 0.6310416 0.61366737 0.9210138 0.9644155 0.94753706 0.8739007 0.8884847 0.95579934 0.93697846 0.82919216 0.7082026 0.8757229 0.928757 0.76549524 0.7054591 0.77055275 0.7487874 0.7449955 0.6891412 0.64608896 0.49466327 0.5102068 0.46469566 0.52063733 0.5698902 0.5493144 0.54115903 0.579347 0.5947989 0.59905565 0.56731343 0.5948783 0.60901237 0.59536934 0.57402873 0.5726758 0.62655824 0.63963795 0.60671073 0.59138227 0.6179415 0.64847666 0.6612168 0.6273715 0.5906186 0.6563411 0.66529775 0.8885661 0.872524 0.9050273 0.9155761 0.8511062 0.6928247 0.7580437 0.84463143 0.75586027 0.6294376 0.729822 0.77934134 0.5496909 0.6662268 0.4910375 0.53097147 0.541687 0.58161855 0.44557208 0.35406405 0.369635 0.36719978 0.38526636 0.46075177 0.4427197 0.4059661 0.45662254 0.5066117 0.45094055 0.3330464 0.5193491 0.5325686 0.43821764 0.5349149 0.5239621 0.57433593 0.5303004 0.643269 0.6569385 0.63792646 0.86916304 0.7964369 0.82356375 0.8013103 0.7451651 0.63444793 0.73227733 0.7403548 0.56399626 0.68136656 0.6172644 0.6210283 0.3396737 0.5164153 0.31109315 0.27313095 0.45463246 0.43271044 0.2789184 0.24905391 0.43764305 0.3520132 0.23454925 0.2000584 0.16468783 0.15091476 0.23847927 0.27413332 0.004721828 0.27656454 0.25827926 0.25797394 0.1941692 0.344051 0.31726128 0.27436358 0.34291565 0.438002 0.5515543 0.62930954 0.6849667 0.64917636 0.64144343 0.49593055 0.4919495 0.6266924 0.69499016 0.70136094 0.68327415 0.64886653 0.7033982 0.7109206 0.70126605 0.484287 0.5165087 0.6978136 0.51070493 0.55608326 0.5655445 0.5572623 0.5660002 0.57202685 0.72113216 0.6739615 0.6770233 0.7017084 0.426466 0.44896674 0.57483983 0.4947529 0.16896352 0.48376647 0.20829144 0.18738821 0.17520444 0.11279613 0.061071776 0.1495898 0.13610928 0.039964937 0.016508207 0.09843592 0.016232744 0.058086406 0.1290304 0.07798809 0.5037302 0.5010891 0.18725947 0.024849985 -0.0037464397 0.55602175 0.5336391 0.5189389 0.31765488 0.08700356 -0.19449559 -0.13652419 0.5101578 0.5689583 0.35963356 0.3473499 -0.17320947 -0.04880863 -0.005603008 0.34915516 0.3132747 0.28428698 0.13152541 0.24818656 0.29785037 0.23286596 0.19124725 0.061610572 0.05675379 0.20951006 0.3374114 0.4003284 0.128791 -0.016785923 -0.07820916 0.25544962 0.44264558 0.34821552 0.570747 -0.07367867 0.5491276 0.63784724 0.09850446 0.10119031 0.16824536 0.23355564 0.14963114 0.0963824 -0.058883123 0.5568036 0.62614834 0.6997497 0.67046463 0.14856614 0.121887065 0.14427552 0.22392741 0.31881058 0.48300856 0.61745965 0.6449387 0.6732274 0.34984714 0.16241015 0.1957994 0.3069002 0.39401898 0.5519359 0.396999 0.38658133 0.3631217 0.28967685 0.309177 0.468359 0.5349201 0.57574725 0.56459403 0.5314005 0.38599896 0.36098582 0.30685982 0.2549407 0.54474056 0.5649892 0.56186235 0.4748823 0.5058268 0.47439218 0.4750871 0.3606472 0.43622634 0.4208092 0.58083284 0.35012475 0.34039417 0.19334847 0.2246184 -0.05572427 0.35473937 0.29544014 0.23990902 0.10446275 0.2243985 0.17127486 0.077089734 0.2497668 0.1617007 0.06900562 0.44281957 0.45637766 0.3940401 0.27427933 0.12435347 -0.10137036 -0.08505764 0.16151303 0.47736907 0.406227 0.3413722 0.31900048 -0.15807162 0.35112804 0.41578493 0.5529447 0.50586617 0.35138524 0.017496403 0.5727317 0.5445484 0.51570976 0.3498711 0.40783125 0.42457113 0.29433513 0.26686317 0.15143126 0.31859612 -0.3223862 0.46553445 0.47500253 0.07071745 0.11630197 0.089461505 0.563027 0.10966779 0.095811404 0.10740915 -0.07105005 -0.24324389 0.60519063 0.38963467 0.17413992 0.18861952 0.26403728 0.36490715 0.48585516 0.6440046 0.36712962 0.3540545 0.23631743 0.4440972 0.39190182 0.37480587 0.3254161 0.22466202 0.55068874 0.50932205 0.42409074 0.39950067 0.2236503 0.15631534 0.51441383 0.52002263 0.5278207 0.40119702 0.320871 0.29530632 0.2415727 0.2690175 0.29724362 0.5596535 0.30255377 0.24791943 0.32154465 0.5953742 0.52888346 0.32312298 0.5156133 0.50303495 0.504913 0.5100729 0.50380677 0.49799183 0.47112942 0.47461188 0.4381315 0.35390788 0.29674947 0.13915943 0.24279892 0.41073504 0.43809733 0.4441328 0.39255166 0.03548291 0.13752693 0.38313425 0.41126734 0.43071038 -0.10927063 -0.0677397 0.36118338 0.3729729 0.068619505 0.11364485 0.29468146 0.18882382 0.13729121 0.2623458 0.31950027 0.2306864 0.41334176 0.27667242 0.47377938 0.22487512 0.28187424 0.34383744 0.100000516 0.14567704 -0.07267566 0.13252258 0.37869838 0.13544191 0.040265072 0.2685049 0.27784082 -0.022294428 -0.05537567 0.4350862 0.46818864 0.18477926 -0.005399624 0.52174044 0.48797184 0.45510286 0.3346511 -0.08880847 0.02270186 0.37437153 0.45441216 0.37535214 0.095996775 0.15522234 0.46930182 0.18155882 0.15456697 0.43896735 0.38675502 0.37005258 0.3615489 0.44449782 0.50812966 0.29179206 0.5959362 0.21493582 0.33269876 0.6327548 0.603421 0.3900916 0.25650218 0.33271107 0.35465068 0.5917346 0.54372585 0.43060914 0.31280515 0.35878074 0.5202685 0.5621452 0.5348842 0.48434758 0.5536983 0.41078296 0.39766768 0.385715 0.3396348 0.11058478 0.439317 0.51554024 0.5545516 0.37355658 0.40566248 0.43503073 0.4376718 0.28264272 -0.18076697 -0.04697754 0.0961604 0.41841796 0.5061561 0.53097963 0.50855005 0.35534856 0.051705893 0.31201497 0.43176425 0.46300155 0.42998636 0.30384442 0.0061963648 0.020519778 0.2537117 0.35020396 0.3709535 0.06073159 0.28281617 0.2707981 0.08390759 0.18289989 0.23342451 0.24441272 0.1611448 0.18760931 0.23439786 0.18500519 0.14644772 0.09348909 0.19954057 -0.08259927 0.029407624 0.02451294 0.27633998 0.22906184 0.11550678 -0.27507913 -0.23400503 0.4394452 0.38537002 -0.010221944 -0.01291962 0.4460333 0.38584137 0.51662654 0.48938447 0.5189754 0.38477114 0.5144636 0.07393323 0.20700872 0.21351314 0.1836752 0.1473861 0.6326356 0.40594292 0.013096631 0.14787513 0.21988434 0.2352643 0.18956077 0.6165062 0.53152454 0.60754025 0.58718765 0.32331857 0.65638006 0.6510075 0.3618754 0.31350648 0.6225431 0.5901437 0.33309877 0.28531188 0.32283646 0.3892582 0.5341007 0.5025941 0.4493993 0.40117776 0.32658082 0.42093468 0.45546207 0.644361 0.6184593 0.5611648 0.4806956 0.6376695 0.3702651 0.37218407 0.31689566 0.592642 0.27106583 0.1275524 -0.00022025779 0.20544738 0.47448745 0.5422121 0.58083475 0.42906758 0.1565806 0.07714028 0.0114765875 0.26322487 0.4016295 0.5521604 0.5863202 0.573696 0.4142155 0.37813583 0.40545723 0.3298537 0.024151813 0.48998338 0.4512264 0.40448081 0.35688347 0.43671858 0.22006714 0.3146985 0.25482053 0.21881294 0.24557519 0.24330032 0.10098252 0.23989494 0.2616872 0.05400736 -0.030241339 0.21076544 0.23760962 0.2666179 0.065430455 -0.09243323 -0.049449593 -0.24213798 -0.17794019 -0.06369057 0.39062554 0.50375426 0.5517164 0.58766246 -0.15797046 -0.08048032 -0.04710073 0.5278294 0.5988087 0.6145253 0.44815254 0.4096182 -0.026433617 -0.07607576 -0.0012533143 0.21113908 0.40917957 0.6065484 0.63871133 0.64833546 0.07877164 0.116155416 0.05709795 0.624799 0.6718434 0.6771611 0.4103484 0.18351243 0.1977871 0.15139692 0.5676476 0.6234179 0.65065706 0.53882504 0.51704264 -0.16150768 0.08246129 0.19686529 0.2246294 0.2335139 0.54842514 0.0904213 0.16433503 0.23117018 0.24569356 0.5012463 0.53792083 0.099994324 0.18487795 0.20490038 0.10843413 0.047149595 0.045350254 0.6854093 -0.124527566 0.07034603 0.22457197 0.21718591 0.16214019 0.13487118 0.086072795 0.7177131 0.6977248 0.123483494 0.19327208 0.21999145 0.16216917 0.1397633 0.7174821 0.6807378 0.27811623 0.12839037 0.690357 0.29841956 0.26694083 0.6044787 0.54952633 0.40131956 0.5152201 0.5053226 0.47044265 0.40097603 0.46917406 0.51811165 0.5132702 0.4910152 0.46829933 0.62394357 0.55153966 0.4436317 0.29700953 0.6262743 0.35092667 0.2976585 0.28462273 0.30252892 0.56482935 0.2598319 0.2190875 0.5062113 0.5592482 0.58122355 0.49458873 0.5574973 0.6019661 0.61058205 0.5833423 0.5410312 0.5111382 0.35861322 0.3528592 0.20253985 0.16346064 0.6004622 0.53732634 0.48436564 0.28049654 0.49078047 0.3652444 0.49104545 0.2540781 0.2718514 0.3172517 0.24120201 0.37671393 0.18848765 0.27023965 0.50099415 0.1299907 0.272612 0.40751767 0.20049477 0.25314152 0.14500488 0.018129695 0.23792902 0.4507707 0.5763719 -0.043143846 0.020231389 0.6019211 0.47636205 0.16508874 0.6421433 0.06152655 0.12160606 0.6664297 0.37232214 0.16735457 0.12261771 0.41611573 0.5876566 0.6438867 0.6557883 0.5105742 0.4327914 0.15598884 0.08947195 0.47960573 0.5934207 0.61429703 0.6335064 0.54028714 0.22942542 0.47394043 0.22463943 0.60025775 0.10681926 0.16396672 0.20395042 0.7255841 0.66718704 0.09132173 0.08016227 0.34261885 0.729596 0.75157094 -0.042714432 -0.22017726 -0.21073608 -0.23483202 0.09902643 0.07926108 0.06558736 0.16145971 0.30639577 0.44331887 0.7477759 -0.19804524 -0.2500076 -0.13137166 0.1264023 0.11781165 0.086829565 0.30356732 0.41950828 0.72703695 0.2987931 0.086966015 0.603963 0.4564386 0.35440785 0.51389563 0.5457618 0.50532675 0.52058125 0.4866464 0.5566941 0.498082 0.55477196 0.5300201 0.4986766 0.5638938 0.5635042 0.5022594 0.28216696 0.23346975 0.23924044 0.2757936 0.29165563 0.24603711 0.42226443 0.47421962 0.3391776 0.5344012 0.56985414 0.2575035 0.5655442 0.5789267 0.6500174 0.6614806 0.6807716 0.6193765 0.5373975 0.6266185 0.59990466 0.33230853 0.036296263 0.47374973 0.6166594 0.059771106 0.52607983 0.26480263 0.46074846 0.30463883 0.49370444 0.6438797 0.19120964 0.6517743 0.1421361 0.5078963 0.63887185 0.25698262 0.20405333 0.35421383 0.5892051 0.31008148 0.28962243 0.3312875 0.29994142 0.4942165 0.5801853 0.41903362 0.5966394 0.27296185 0.59712553 0.61005795 0.43503582 0.0055466257 0.014230594 0.026606012 0.1447539 0.30079445 0.5297976 0.6004931 0.6141174 0.50853336 0.43044537 0.09749833 0.07674545 0.46465188 0.14635016 0.2503041 0.17467886 0.2945019 0.72269154 0.67730033 0.527487 0.3437028 0.4447542 0.7454536 0.56031084 0.5964091 0.7415356 0.13785145 -0.12415608 -0.16945115 0.0954529 0.41643125 0.588841 0.6453983 0.7092538 0.6237358 0.22596958 0.33447397 0.24492966 0.28716388 0.24171269 0.35069135 0.04708956 0.1119673 0.1206173 0.19878024 0.3758115 0.51159096 0.622067 0.6623507 0.60814023 0.53293246 0.46529076 0.47133338 0.43356988 0.41540712 0.21740492 0.18718928 0.2090005 0.5478306 0.58880424 0.48379496 0.4950632 0.51067406 0.55301166 0.54816324 0.5182617 0.44692737 0.38273197 0.5928594 0.5692572 0.6106805 0.5976846 0.5197966 0.46970135 0.5752277 0.525988 0.18221015 0.2116434 0.24682793 0.23320559 0.36177444 0.15264319 0.13495882 0.19506264 0.49737388 0.53566664 0.15425216 0.083976 -0.13143182 0.49100286 0.5030472 0.6824297 0.7090582 0.72123015 0.6669154 0.18963018 0.4311881 0.4249818 0.6505022 0.66683936 0.37098962 0.3294701 0.62723726 0.30304894 0.19378017 0.5302826 0.47847903 0.727154 0.37758192 0.7745028 0.27411252 0.7867012 0.13894705 0.7199789 0.26224834 0.64302397 0.31240085 0.45373207 0.34906837 0.24014835 0.3474704 0.31181026 0.45873353 0.39099756 0.13012956 0.031088486 0.42287925 -0.0016883723 0.14755079 0.3573385 0.5136957 -0.017194062 0.16899747 0.08993361 0.050419055 0.25240475 0.19809812 0.65833044 0.5827632 0.39730248 0.44066197 0.6929475 0.6440962 0.5164676 0.6253284 0.57521445 0.68673146 0.63635063 0.5717499 0.33252028 0.6644894 0.66288567 0.5958562 0.535317 0.32435745 0.23586085 0.44184953 0.64238757 0.67462957 0.5397156 0.56456715 0.4111186 0.37794906 0.3601743 0.45797223 0.23803827 0.23182324 0.3294664 0.51895356 0.59172165 0.5929147 0.577016 0.54305923 0.47778577 0.43960726 0.43927372 0.47642022 0.29496357 0.20521405 0.29395345 0.30931926 0.5401421 0.4606816 0.56211793 0.42543977 0.38003987 0.55606985 0.53728235 0.49556887 0.4546427 0.31198743 0.21087083 0.21151105 0.22726229 0.23479047 0.22694148 0.218662 0.28424025 0.3676802 0.39167088 0.6755626 0.6918883 0.6748005 0.12875326 0.117956504 0.34666142 0.6491331 0.6453718 0.640172 0.42503858 0.29702446 0.61780834 0.30680227 -0.29591677 0.14511313 0.55094874 0.3980677 0.659177 0.4732961 0.7847079 0.12779331 0.8214999 0.7556912 0.3089279 0.5683867 0.64736056 0.36736736 0.34488645 0.12174149 0.46256667 0.36830068 0.3873747 0.402404 -0.22961177 0.2696703 0.22165315 0.16137424 0.10467891 0.21210365 0.38767883 0.2935542 0.2923127 0.19676109 0.2645643 0.2408929 0.5673705 0.5180541 0.45373744 0.6655251 0.65644795 0.5176836 0.48616606 0.4803549 0.16283785 0.12741354 0.17929767 -0.2284222 0.62003267 0.6604008 0.52694803 0.49315387 0.39594853 0.326333 0.3739736 0.53625673 0.57654786 0.31887904 0.25292408 0.3085352 0.35292307 0.3472591 0.320826 0.45100176 0.42991102 0.43547475 0.35959765 0.37071836 0.36041552 0.29992622 0.23959011 0.33384728 0.26211575 -0.067204624 0.19927335 0.27464288 0.009315971 -0.014259767 0.21530968 0.295321 0.5960697 0.1488598 0.24487337 0.26117858 -0.043095104 0.20901693 0.23913069 0.6206101 0.51891345 -0.13141696 0.18135427 0.55276185 0.5431371 0.6182762 0.39449093 0.43299425 0.673434 0.74511766 0.707264 0.75026506 0.30261946 0.6736407 0.71636975 0.37342492 0.5496248 0.38645297 0.3845663 0.39916924 -0.056122616 0.40670776 0.08084114 0.35943732 0.10410413 -0.22454539 0.058385927 0.022798825 0.33702 0.25364763 0.20022953 -0.21542114 0.07980169 0.038241275 0.41609433 0.28813553 -0.0083936155 0.39646718 0.46794674 0.49363422 0.29153603 0.28325045 0.1391828 0.08865962 0.5784676 0.55734277 0.263044 0.31776085 0.35020673 0.183506 0.49709338 0.20759885 0.09258562 0.6178297 -0.17230602 0.42763203 0.54355156 0.6125592 0.102392346 0.33306664 0.1506961 0.16783087 0.32111695 0.3682473 0.39231664 0.21537462 0.34458846 0.29541883 0.36652914 0.32884252 0.2571839 0.3316834 0.30522436 0.38935536 0.36435133 0.31397885 0.24270545 0.2953217 0.2736048 0.2901959 0.29422787 0.4442671 0.40289155 -0.10838078 0.33500284 0.3094936 0.44664264 0.39860648 0.37787277 0.2883131 -0.31160945 -0.31744915 0.15075587 0.44758037 0.38461763 0.30414546 0.14690873 0.117604114 -0.099214576 0.07143133 0.6157584 0.65341866 0.3134081 0.5998003 0.3679812 0.38193 0.39609724 0.38766462 0.27399996 0.38178134 0.21610515 0.24578601 0.14365117 0.2200495 -0.13673486 0.1779632 0.19071268 -0.18400422 0.18637131 -0.17278023 0.2992017 0.16154009 0.37751693 0.2720975 0.3982414 0.48665822 0.43446022 0.26495576 0.20068815 0.3707333 0.5758002 0.54799616 0.2349535 0.22735377 0.22606742 0.59806085 0.6579051 0.6436043 0.59250116 0.184114 0.109852046 0.52746296 0.07558519 0.5207075 0.23671716 0.09362986 0.16505624 0.42975432 0.21823479 -0.04364424 0.27964455 0.33126175 0.2603653 0.24806952 0.35308462 0.37217674 0.34269986 0.29989085 0.3750512 0.37242365 0.41993898 0.40830544 0.35993433 0.31895915 0.29145172 0.23768225 0.33060426 0.5573937 0.5236198 0.46368986 0.3895883 0.28578335 0.30899858 0.25665164 0.344329 0.3601635 0.5579424 0.52366 0.06702407 0.22899303 0.3338413 0.26977605 0.56432146 0.08209856 0.054126468 0.3353666 0.10943767 0.14504078 0.23876736 0.13115115 0.19328001 0.22394446 0.267694 0.3309408 0.25874946 0.29627413 0.32637158 0.35326284 0.36052042 0.32717955 0.11563952 0.27369374 0.25003666 -0.038945407 0.09577771 0.24905464 0.1023256 0.30832875 0.35316288 0.38651824 -0.026692115 -0.06710334 0.5141702 0.45495468 -0.19381717 -0.16863881 0.15147138 0.08891889 0.54406726 0.60534286 0.5697422 0.14157343 0.18011798 0.6446655 0.6034968 0.26855245 0.073001355 0.095168054 0.061347738 0.061444283 0.11773637 0.04617308 -0.04043956 0.04183373 0.13825378 0.32942668 0.326258 0.3218158 0.37010533 0.39354748 0.37009585 0.47827932 0.49388027 0.49157047 0.43620917 0.373068 0.23021972 0.1107272 0.14405882 0.58225644 0.567945 0.52523935 0.4574604 0.31491253 -0.16470093 0.26132798 0.30657113 0.5789791 0.029454276 0.4815054 0.25470152 0.11834009 0.20026715 0.17979725 0.2034634 -0.08789314 0.2742237 0.07464046 0.14127113 0.19671346 0.17299671 0.11814938 0.24096777 0.013875186 0.0035180524 0.3080233 0.33219734 0.32820028 0.3524697 0.32526562 0.36296332 0.09452943 0.32381687 -0.0114895925 0.25374663 0.23041731 0.16922453 0.2647327 0.17761862 0.310912 0.15102278 0.38132167 0.070103645 0.10469768 0.4403898 0.08954248 0.08178252 0.0036722682 0.002304934 0.4513086 0.5015401 0.45324284 0.20220613 0.28998664 0.23348624 0.2479388 0.6292416 0.58549404 0.25210726 0.2508576 0.2672453 0.24989635 -0.16647401 0.20219602 0.18998383 -0.1013176 -0.083817996 0.27895573 0.17347404 0.04166381 0.29115137 0.2513336 0.30514318 0.25364286 0.39082533 0.32441944 0.5616724 0.52002275 0.43055964 0.33289647 0.4910542 0.5611818 0.24090698 0.24919 0.2134753 0.5569123 0.5220633 0.44287008 -0.13305862 -0.001501888 0.01750812 0.52492875 0.5187281 -0.3062656 0.50264496 -0.17389151 0.3500406 -0.40719104 0.26143572 0.097900026 0.2067495 0.0090599395 0.1710665 0.14247885 0.14783828 0.38104194 -0.02881857 0.15771161 0.41364917 0.30185193 0.39747703 0.33840322 0.35605437 0.17426264 0.01586324 0.19717409 0.10347732 0.16003074 0.2084553 0.23382437 0.20942137 0.36907476 0.15008661 -0.21560931 0.11434239 0.4197711 0.173879 0.274892 0.422848 0.41472 0.21995506 0.30996305 0.1373137 0.52716655 0.24107164 0.3206496 0.2906993 0.20805874 0.21925752 0.2436352 0.2117585 0.31772798 0.3883167 -0.032603774 -0.004228061 0.44821075 0.39267296 -0.0002712384 0.0847901 0.01613564 0.011541169 0.56290853 0.6152293 0.6602278 0.6910696 0.39209378 0.6131915 0.67807126 0.44286436 0.42363152 0.11687487 0.14236864 0.28316635 0.22470972 0.27763182 0.5409098 0.4990154 0.44140363 0.37249172 0.3016879 0.29230654 0.5229722 0.27198607 0.22707862 0.20498979 0.2739955 0.4856707 0.43439382 0.3416282 0.4532099 0.49804068 0.52020025 0.45915264 0.3774765 0.015021559 0.49302596 0.52200615 0.39144048 -0.056634158 0.55965984 0.3433828 0.3561266 -0.23405403 0.28775698 0.099891596 0.18803671 0.11056532 0.19121833 0.3189312 0.039866656 0.43452954 0.3962506 0.36161065 0.47592765 0.48562866 0.47742462 0.07075179 0.2380478 0.09598121 0.2651411 0.26995718 0.18101199 0.14948368 0.18292241 0.23143974 0.25788903 -0.32183504 0.37823302 0.4330753 0.112033464 0.120014966 -0.16272756 -0.17987728 -0.19813499 0.41390502 0.15086061 -0.10487748 0.37115473 0.36205816 0.17619054 0.16383708 -0.16397473 0.23095137 0.18420523 0.16208161 0.27333945 0.30999848 0.2043434 -0.5649956 0.18371509 0.10653835 0.10443254 0.19655798 0.2227557 0.46710965 0.15633196 0.12489656 0.26210052 0.45166886 0.3979385 0.14853333 0.507236 0.4672033 0.53449917 0.52898407 0.5239192 0.3514415 0.46554124 0.6874943 0.50735766 0.063348 0.57343924 0.67532635 0.71086454 0.74059236 0.5176633 0.51413614 0.48052913 0.1444229 0.1509451 0.5946339 0.6768594 0.7340405 0.7541716 0.29775608 0.17099503 0.18185669 0.1517188 0.10845063 0.48773366 0.48260158 0.3719783 0.37149668 0.2955075 0.29665846 0.26970845 0.24885556 0.3568932 0.42093697 0.49131835 0.45049846 0.43531433 0.40514368 0.39557195 0.44500875 0.4782806 0.50120836 0.32874057 0.5242662 0.55176824 0.073382914 -0.016531061 0.57767504 0.34381458 0.2981046 0.2301126 0.16180566 0.59506786 0.6060512 0.2994249 0.21754733 0.21239352 0.3094293 0.3821559 0.6023084 0.2117508 0.12907445 -0.05994924 0.26545286 0.22399059 0.32977822 0.32863492 0.31614938 0.4114064 0.38630193 0.3948267 0.4710778 0.48408332 0.46932873 0.5128825 0.5142011 0.4985143 0.4674934 0.45230684 0.3256393 0.059594054 0.09422922 0.08509298 -0.11106099 -0.044728003 0.29258364 0.13084632 0.2704382 0.28234518 0.24415421 0.26635745 0.2414858 0.35459262 0.19810821 0.05776874 -0.0293218 -0.2472811 -0.17608318 0.4059515 0.098532505 0.06417318 -0.02271901 0.4000175 0.15114278 0.31277433 0.13596995 0.12693039 0.077731 -0.44665247 -0.29291496 -0.26500234 -0.35711414 -0.012861859 0.30817094 0.15454467 0.08245188 -0.45081902 -0.44540846 0.4128816 0.21430524 0.14048672 -0.38240317 -0.30286276 0.27780735 0.30008256 0.49576685 0.13908356 0.5603746 0.6206127 0.5614229 0.5756421 0.69995713 0.5379232 0.51985186 0.08649883 0.52603185 0.74834394 0.7219684 0.5278245 0.4927979 0.17668419 0.6250227 0.7087612 0.7515802 0.755136 0.1786341 0.2526127 0.55313724 0.56692636 0.28796864 0.28606832 0.32427192 0.42342573 0.4602813 0.52911085 0.5280009 0.3624665 0.35835767 0.3229373 0.273426