# vtk DataFile Version 2.0
Really cool data
ASCII
DATASET POLYDATA
POINTS 7841 float
28.474884 56.813374 3.6951683
28.46485 56.659798 4.0666776
28.47262 56.934414 3.6894383
29.181183 55.277737 3.546326
29.239208 55.263348 4.0628657
29.158941 56.10681 2.1318974
29.023891 55.782658 2.7254891
28.75525 55.829277 3.5343652
28.879059 55.868713 4.332082
29.030403 56.014835 4.7861915
29.049805 56.625637 2.1766493
28.814335 56.569817 2.6060205
28.550665 56.496925 3.5622196
28.628622 56.44793 4.3641543
28.960924 56.976696 5.242185
29.355215 56.70344 5.916459
29.168938 57.341618 2.1443791
28.834908 57.376453 2.785151
28.623295 57.34974 3.4676244
28.659197 57.159103 4.4243298
28.99254 57.47049 5.279175
29.300388 57.47597 6.183853
29.236986 58.341583 2.7325904
28.885084 58.153206 3.7278082
29.053747 58.24588 4.460958
29.228138 58.04764 5.6219387
29.390821 57.993702 6.3563437
29.271107 58.962864 3.7023585
29.354252 58.969055 4.2120347
29.67366 55.213562 2.6666067
29.751173 54.928577 3.4937162
29.685892 55.065258 4.262112
30.36009 55.264812 13.725957
29.70411 55.85482 1.9136319
29.36468 55.495117 2.5696516
29.427166 55.49064 4.7105823
29.699095 55.81075 5.1820583
29.972973 56.04303 5.8999424
30.178192 55.76328 13.64743
30.062716 55.839096 14.285524
30.178787 55.999622 14.893435
29.556139 56.53286 1.7130604
29.58518 56.340473 5.3575487
29.822495 56.593002 6.5120134
30.055723 56.43855 13.704529
29.93239 56.453194 14.423637
30.14823 56.509506 14.986363
29.591413 57.255466 1.7611587
29.583307 57.50307 6.609173
29.767654 57.57987 6.9529824
30.115076 57.057503 13.900588
30.134726 57.22833 14.482903
30.307117 57.25182 15.030216
30.06031 57.98323 1.7497755
29.650528 58.73513 2.375315
29.584335 58.492546 6.3237486
30.060171 58.25133 7.1754527
29.647326 59.114273 2.6082823
29.656054 59.532986 3.6243017
29.476347 59.142273 4.286395
30.177448 59.555645 5.462675
30.355238 59.985245 2.2019656
30.20782 60.03534 2.6405926
30.093357 59.842796 3.9464056
30.407986 62.52748 5.689669
30.375084 62.7171 6.2117786
30.397192 62.752388 7.449961
30.377554 63.109406 5.6305165
30.450064 63.26146 6.672836
30.414143 63.298836 7.4846945
30.468437 63.425255 8.07648
30.919872 54.416695 3.3655334
31.342634 53.810276 12.727644
31.326918 53.456707 13.521414
30.74855 55.142265 2.2050917
30.34681 54.73961 2.7991974
30.491283 54.54241 3.5070357
30.631355 54.611923 4.217072
30.882961 54.832424 4.9112406
31.008522 55.277958 6.2619963
31.237734 54.993656 7.580889
31.346684 55.01275 8.3829975
31.229212 54.696434 12.493047
30.823662 54.651123 13.828834
30.956472 54.703953 14.502449
30.92045 55.095245 14.927532
30.373495 55.643307 1.8738971
30.542196 55.801064 6.2103877
31.198233 55.251762 7.89944
31.317072 55.567787 8.432598
30.704775 55.560524 12.998818
30.495611 55.47267 13.2902155
30.371687 55.52766 14.723018
30.789104 55.66278 15.23668
31.090126 56.04709 15.652053
30.902477 56.501896 1.4249647
30.445057 56.300602 1.5538386
31.090538 56.410954 8.148493
30.453907 56.59864 13.137629
30.47667 56.430065 15.39153
30.92417 56.553764 15.759331
30.89171 57.455437 1.0437949
30.19033 57.252773 1.5386987
30.849167 57.127865 7.6249027
31.1215 57.490334 8.058449
30.479507 56.95946 13.2155905
30.456804 57.38182 13.775044
30.609688 57.4169 15.442917
31.028387 57.567852 15.926151
31.357649 58.65634 -0.3050509
30.448172 58.431465 7.393028
31.024368 58.23949 8.134323
31.231525 58.5966 14.144348
30.819908 58.290062 14.694845
30.79382 58.1459 15.279489
31.150986 58.22846 15.891921
31.36399 59.38271 -0.38360715
31.138897 59.517975 0.5320139
30.527695 59.008457 1.6108961
30.632215 58.878235 7.2400923
31.379065 59.169456 8.28476
31.244164 58.861023 15.326285
31.161274 59.9046 0.48725927
30.729374 60.449852 1.8142666
30.749916 60.701015 4.5466876
30.77314 60.178947 6.542291
31.044651 60.182484 7.4993587
30.782667 60.7366 2.134208
30.82398 61.02523 2.545651
30.538248 62.0312 5.5133576
30.508026 61.538746 6.310736
30.73854 61.702255 7.2565985
30.981089 61.789673 8.344955
31.2567 62.16006 8.918227
30.773008 62.387226 4.8841314
30.604843 62.652924 8.170591
31.044228 63.02808 8.95453
30.8462 63.348183 4.9382286
30.56735 63.560406 5.608479
30.609833 63.600197 6.479345
30.548107 63.76672 7.5587096
30.626404 63.51083 8.410603
31.078474 63.28678 9.0148735
30.938684 63.841988 5.163016
30.887579 64.04538 5.6457543
30.775385 64.06222 6.286897
30.803303 64.175896 7.5357766
30.860504 64.07107 8.2993145
31.157963 64.04112 8.761969
31.192535 64.56793 7.9034524
32.400696 49.148922 9.564502
32.150593 49.66392 8.631785
32.144993 49.60782 9.442745
32.253105 49.765533 10.154831
32.252712 50.488632 8.101194
32.0612 50.561447 8.846168
32.01582 50.412453 9.516888
32.26052 51.04582 11.477561
32.328735 51.197414 13.150681
32.070602 51.265545 9.465366
32.262188 51.702328 10.718529
32.157024 51.59209 11.576385
32.04406 51.73787 12.526593
32.182934 51.76648 13.471318
32.173824 52.189922 14.062122
32.365906 52.623795 7.6905026
32.29551 52.990414 8.648332
32.439312 51.967876 9.457794
32.295795 52.429394 10.987704
32.059242 52.395283 11.709563
31.771032 52.474117 12.637322
31.703959 52.6379 13.50689
31.884455 52.850403 14.369908
32.199825 52.910732 14.744191
31.13551 54.420544 3.0743673
31.554016 54.43058 3.157335
31.502193 54.425068 4.183242
32.007103 54.28292 6.5732336
32.036884 53.76647 7.925998
32.157753 53.626247 7.972355
32.10116 53.76842 10.99985
31.635393 53.567543 14.465775
31.798153 53.93593 14.909874
31.310316 54.738075 2.534511
31.60609 54.53858 4.6421475
31.578941 54.645588 6.1774774
31.718475 54.309162 7.215319
32.08126 54.88005 9.284594
32.163555 54.502518 10.651454
31.644712 54.41618 11.589543
31.781033 54.299095 15.067818
31.91092 55.202522 15.607529
31.45899 55.466274 1.9798238
31.691664 55.678375 8.960855
31.81131 55.28145 11.50519
31.561274 55.49491 15.570473
31.88861 55.87285 15.880052
31.890347 57.1898 0.63063794
31.543135 56.24726 1.6844707
31.918156 56.008606 11.85342
31.810154 56.597034 12.549073
31.97517 56.68018 16.283522
31.971912 57.523483 -0.36736304
31.783913 57.35353 8.818906
31.595509 57.535583 16.318401
32.066505 57.28578 16.529467
32.050583 58.971703 -1.3933792
31.512487 58.47284 -0.6222762
31.661203 58.60536 8.73416
31.464293 58.291588 13.826583
31.571177 58.435024 16.105913
31.80486 59.508335 -1.0787255
31.563744 59.752327 -0.7600122
31.551931 59.055794 14.746258
31.516706 58.97293 15.582076
31.689018 58.90965 15.869218
32.132717 60.21019 -1.1297183
31.752794 60.302303 -0.48175836
31.656334 60.50061 0.30929503
31.796637 60.095512 8.777512
32.106136 60.70333 -0.5316834
31.716993 60.742146 0.46004027
31.919888 61.153618 1.3866737
31.851765 61.408245 9.277149
32.370888 61.200577 10.089832
32.453934 61.84023 12.164352
32.44849 61.621555 13.466283
32.459366 61.655228 14.461182
31.836697 62.295284 3.7251806
32.442886 62.012012 14.3595
31.838533 63.347748 4.332126
31.487434 63.68787 4.610009
31.490044 63.428604 9.144039
31.88474 62.966816 9.587063
31.512201 64.08199 4.992808
31.432283 64.36388 5.537708
31.37905 64.47245 6.4301076
31.333126 64.536644 7.303549
31.499239 64.414536 8.39413
31.573948 64.10541 8.854783
31.64491 64.56377 6.3652244
31.495872 64.64566 7.6250806
31.730597 64.634796 8.120648
33.211426 46.014095 4.8187976
33.076324 45.938366 5.5259237
33.10124 46.01358 6.1232224
33.34555 47.018555 2.986106
33.238018 46.780346 3.53036
32.950134 46.55711 4.7643433
32.805496 46.543705 5.5791225
32.927082 46.559555 6.277812
33.304005 47.471348 2.9779618
33.13347 47.3519 3.3977277
32.892395 47.20443 4.3714886
32.812237 47.310394 5.411418
32.99243 47.487415 6.4800625
33.256847 48.023346 3.6904826
33.07963 47.98365 4.4977674
33.1037 47.973576 5.3102274
33.378754 48.45847 6.7218843
32.820755 48.763844 8.721075
32.71205 48.809456 9.472661
32.809723 48.9165 10.289259
32.9901 49.16679 10.857451
33.163517 49.74207 7.20316
32.543552 49.845116 7.711582
32.45575 49.295532 8.335666
32.539146 49.245136 10.529387
32.74383 49.68733 11.025082
33.03841 50.049625 12.300305
33.283825 49.78061 13.06624
32.510098 50.465183 11.103459
32.795288 50.408733 12.869333
32.750164 50.863728 13.387947
33.022434 51.009644 14.04368
32.788593 51.23262 7.802891
32.560364 51.35693 13.645451
32.98485 51.659492 14.470182
33.18288 51.753906 14.794355
33.080967 53.021603 6.515194
32.57642 52.85857 7.3545527
32.593525 51.863785 9.054056
32.31871 52.335297 14.528155
32.674484 52.62458 14.86139
32.612263 53.38304 6.6650147
32.54563 53.48712 15.128071
32.669006 55.18947 2.2990618
32.142574 54.797707 2.5002031
32.623425 54.904785 3.7948663
32.094933 54.620255 4.3737884
32.793106 54.58633 5.305528
32.521614 54.91066 10.332753
32.777187 55.144142 15.847372
33.12312 55.980007 1.6527253
32.803173 55.689766 16.042927
33.085968 57.17921 -1.3929188
32.409794 57.22551 -0.07455209
32.495907 56.50318 16.372713
32.548878 58.086258 -1.314389
32.895363 57.000805 9.474645
32.65641 57.48034 12.719556
32.266827 57.7641 16.447111
32.785343 58.42023 -1.7651179
32.483326 58.565674 -1.5428452
32.442043 58.1594 9.0286455
32.1672 57.95569 13.236327
32.586555 58.423965 16.341396
32.778065 59.615227 -1.7115717
32.50213 59.783978 9.1948185
33.034264 60.073353 11.578747
33.025986 59.591072 12.837152
32.377693 59.426285 14.801092
32.132786 59.06464 15.94095
32.951366 59.9273 -1.7260265
32.56071 60.326763 -1.3113049
32.74124 60.73157 11.597717
32.645905 60.72648 13.528026
32.63708 60.942554 14.737587
32.897648 60.805435 15.019358
32.529556 60.71472 -0.96490437
32.574734 60.95943 -0.38813972
32.5766 61.249886 0.70669556
32.608757 61.68602 10.753024
32.55584 61.19249 12.170132
32.494965 61.626305 14.692945
32.813904 61.66567 15.238684
32.739494 61.57866 1.7215475
32.26604 62.74725 4.0132356
32.54048 62.437656 11.865898
32.600845 62.299076 12.164787
32.717068 62.50383 13.584085
32.600143 62.335094 14.58358
33.017433 62.301254 15.363517
33.106506 62.10964 15.644408
32.421223 63.164463 4.1709313
32.747936 62.923904 10.154999
33.124443 62.985752 11.70237
32.924465 62.837955 12.484656
33.010124 62.932323 13.624142
33.061504 62.972893 14.508166
[...]
POINT_DATA 7841
SCALARS features_00 float 1
LOOKUP_TABLE default
0.6330267 0.6055087 0.62207174 0.69773597 0.63152313 0.6989541 0.7389593 0.7011411 0.5983085 0.53574926 0.67369914 0.69971 0.67098033 0.5823832 0.48229092 0.41420615 0.5973341 0.6160995 0.59477293 0.53632027 0.46113664 0.4019797 0.47215098 0.4951049 0.44759318 0.40726596 0.36716294 0.3951733 0.3787702 0.70672894 0.6633867 0.5737157 0.62218404 0.6520645 0.72849154 0.5233549 0.44099084 0.34273446 0.6798432 0.7066542 0.67956954 0.617603 0.43890768 0.33815685 0.7322115 0.7516384 0.7191887 0.56427956 0.35825077 0.31841207 0.7596551 0.76261216 0.73690677 0.43796426 0.3875447 0.32770747 0.2595928 0.35499245 0.31784606 0.3511943 0.23433462 0.23192607 0.2538759 0.25490433 0.51403123 0.5324991 0.57098424 0.5816275 0.6025324 0.6445097 0.6776153 0.5345475 0.30684704 0.3571628 0.568825 0.63221085 0.5816774 0.5103153 0.38603404 0.18022999 0.13516808 0.12466015 0.30931693 0.50435996 0.47279084 0.4865124 0.58572924 0.25522026 0.15522462 0.1672621 0.5328337 0.5902505 0.624648 0.5410115 0.52058315 0.4292329 0.5232338 0.213044 0.6478288 0.6525696 0.59384686 0.32119018 0.5020277 0.22821364 0.19368722 0.6676917 0.7335131 0.7005068 0.6536175 0.45197648 0.21176824 0.15439329 0.6352576 0.6826246 0.68283194 0.6438843 0.49742216 0.3578232 0.24813041 0.18826482 0.08795734 0.5991609 0.38142872 0.21937922 0.103247754 0.10165299 0.104609706 0.19997719 0.17853215 0.428096 0.33612216 0.37982374 0.37221372 0.4084121 0.5312944 0.57979417 0.597914 0.64401233 0.6305909 0.63740027 0.6888232 0.6817598 0.62655705 0.6705277 0.6720827 0.66835 0.7001481 0.703066 0.679436 0.6857472 0.38827693 0.44355705 0.41640046 0.35036013 0.33208704 0.37157077 0.37361044 0.23402077 0.2813212 0.22553715 0.15989444 0.2214628 0.2724101 0.2962191 0.28804561 0.05821933 -0.007525198 0.080733046 0.10760726 0.19907692 0.28614667 0.3176519 0.29459366 0.26816812 0.5146124 0.4574993 0.43129694 0.059159085 0.083651274 0.07823619 0.032608103 0.31854337 0.2975001 0.4984586 0.36116326 0.08616282 0.08927441 -0.04269798 -0.08009503 0.13496186 0.30186045 0.32783037 0.4376319 0.1348696 0.19751091 0.39835766 0.3982695 0.15377969 0.34400067 0.3168329 0.42065006 0.4651075 0.28633156 0.18002653 0.58403885 0.49706754 0.55971307 0.47458306 0.086735316 0.634075 0.59862846 0.558684 0.5389588 0.52436423 0.57070374 0.56483656 0.56853616 0.5308896 0.4617896 0.03225327 0.544217 0.45809826 0.41717753 0.085118845 -0.039344758 0.36598474 0.44264913 0.49805206 0.46377015 0.5256992 0.62533736 0.6609999 0.6106173 0.46770644 0.66997296 0.6732184 0.6676787 0.67149734 0.6607363 0.64454913 0.64543325 0.6538863 0.6295193 0.608945 0.59581965 0.57533467 0.6409439 0.6471641 0.6241536 0.59463596 0.57273686 0.6419155 0.6590842 0.63659203 0.5565922 0.4914164 0.63357556 0.5755239 0.48440516 0.23278095 0.4012848 0.36110818 0.29438052 0.24088101 0.13366562 0.3095336 0.4290448 0.29506484 0.24183539 0.18139035 0.2320466 0.25050744 0.2300142 0.2726612 0.27077496 0.18361 0.2833325 0.252231 0.23423576 0.0060556233 0.055083573 0.10870637 0.2685612 0.23890212 0.030068845 0.22051486 0.2460633 0.37341633 0.28691468 0.33202547 -0.01283671 -0.1538009 0.22969472 0.043127738 0.2840414 0.21918681 0.14916378 0.39056602 0.4742963 0.13815522 0.39283383 0.49241138 0.53753746 0.54559886 0.08463295 0.47469765 0.43257475 0.5634217 -0.0015484951 0.05017808 0.021334063 0.3379265 0.49022174 0.552266 0.5675465 0.15418702 0.33210453 0.4035243 0.40215287 0.55826604 0.5380069 0.48258463 0.14958358 0.29847562 0.50666964 0.5319271 0.38303742 0.5357745 0.34439248 0.3872524 0.50019515 0.5642438 0.5857007 0.5667623 0.56325555 0.22237016 0.28699315 0.40243745 0.50234056 0.58567727 0.60452926 0.60835475 0.60141444 0.4777817 0.38666785 0.5850326 0.54226255 0.53593683 0.581677 0.5830676 0.57662725 0.5543188 0.59261453 0.60397124 0.5951538 0.5826321 0.5412259 0.4331091 0.57906675 0.61263496 0.6293905 0.3950139 0.21140675 0.79251707 0.838382 0.5607963 0.61477107 0.18230265 0.1797507 0.1377611 0.753487 0.8046465 0.59561497 0.59748006 0.21249273 0.1767148 0.20737877 0.28960502 0.21638136 0.17205131 0.28258467 0.28026748 0.24588081 0.030014217 0.231325 0.6809381 0.6303977 -0.04415784 0.01424475 0.20417778 0.75034976 0.7299739 0.6762912 0.5762384 0.27306768 -0.09078591 0.18276885 0.7628273 0.7590089 0.7221025 0.5261117 0.30604285 -0.31891355 0.14628689 0.70204437 0.66752553 0.6453936 0.34633774 0.21687528 0.25853866 0.18145843 0.12355623 -0.039127983 0.10279053 0.5435261 0.12528236 0.03634664 -0.0720533 0.24284965 0.33606964 -0.33071095 0.26490533 0.506632 -0.17591152 0.26210546 0.1900368 0.49928558 0.18485875 0.5304716 0.5321065 0.09554467 0.50717163 0.44491604 0.48595726 0.34807146 0.2379995 0.5935087 0.5520121 0.47553283 0.10589737 0.20708515 0.35305715 0.46665585 0.5691228 0.5917239 0.5796374 0.46752474 0.4453285 0.37025893 0.09420789 0.48014122 0.47881597 0.49290615 0.41782635 0.40477234 0.56062156 0.54956686 0.5176854 0.44660974 0.5457558 0.5490316 0.39144254 0.30805677 0.6109871 0.70328915 0.8566091 0.97479075 0.9943477 0.53112113 0.56096387 0.231769 0.14591067 0.5826477 0.71852934 0.78616977 0.88142484 0.9137594 0.49873605 0.039731085 0.20921357 0.2575681 0.43134332 0.56270874 0.686346 0.7432542 0.81576407 0.86821485 0.4577712 0.46072033 0.28024656 0.27172574 0.6377926 0.6934484 0.74112433 0.7917477 0.36846396 0.31741786 0.24806064 0.17610934 0.051072218 0.18636596 0.3598495 0.40231535 0.639599 0.583925 0.5056073 0.22340232 -0.10449974 0.17187834 0.098916404 0.3747837 0.4153446 0.48076445 0.508851 0.40746722 0.73441994 0.7104713 0.5311941 0.31538698 0.24932899 0.2708205 0.12626348 0.07536786 0.51456165 0.5602683 0.53781796 0.7018341 0.73758864 0.23799229 0.12594825 -0.43064386 0.00818043 0.50586605 0.5666567 0.5384333 0.6547686 -0.012586381 0.48683476 0.51458037 0.30895683 0.15413725 0.14528055 0.11641779 0.34335208 0.08910659 0.005804844 0.43629822 -0.026843153 0.43966284 0.45139796 0.050202712 0.4739475 0.45305932 0.40812248 0.20868725 0.23289126 0.3310976 0.24152333 0.4755848 0.29143238 0.2718157 0.5161672 0.53767973 0.34808424 0.20197049 0.104270935 0.07109168 0.09646479 0.21154384 0.32144874 0.47317308 0.38826177 0.3637969 0.4746452 0.47041512 0.49129277 0.4011345 0.7070532 0.8339576 0.949792 0.42466286 0.27057442 0.5382536 0.6700164 0.8057301 0.9566231 0.40046307 0.108699486 0.015695082 0.0828331 0.428727 0.52327585 0.8781024 0.8257915 0.35835552 0.0061959596 0.12536491 0.20124565 0.22924134 0.29333645 0.36674786 0.8299283 0.8169626 0.3589116 0.3296767 0.11004982 0.06702677 0.6846141 0.7750759 0.24100745 0.26653618 0.18862055 0.16788602 0.101308525 0.13717212 0.47358567 0.6453111 -0.2999046 -0.24043263 0.058657758 0.21400262 0.13165464 0.18201071 0.13813543 0.29408643 0.2595269 0.11842757 0.63296366 0.5957029 0.5675883 0.47832894 -0.20641021 0.22624825 0.22762689 0.2030392 0.34888288 0.33337307 0.33174765 0.6575718 0.67804813 0.071138486 -0.23937327 0.1860387 0.3777038 0.18160145 0.65624046 0.026651006 -0.2734822 0.21028075 0.43382645 0.4556154 0.39566475 0.59929043 0.5626279 0.014099026 0.17367584 0.41491592 0.5035786 0.46745166 0.47820947 0.38061297 0.23505208 -0.08475749 0.17692037 0.08812976 0.03642735 0.3245712 0.41528895 0.044452753 -0.00024470687 0.42333758 0.52203345 0.58625454 0.5339886 0.59849215 0.6751417 0.64294875 0.2998441 -0.06347564 -0.03628605 0.46002436 0.6577523 0.68689734 0.6600895 0.36217707 0.52116525 0.60978115 0.65791917 0.64975893 0.17981207 -0.23889601 -0.22132632 -0.008867167 -0.03513986 0.118781865 -0.05721183 0.29540825 0.35459888 0.13061127 0.15835524 0.17748114 0.113647126 0.009156778 0.014245424 0.28383237 0.2512439 0.35839674 0.36804205 0.39186126 0.34607366 0.6908047 0.75504947 0.84228206 0.91749215 0.5128577 0.41502923 0.20817617 0.25593936 0.107784815 0.38218272 0.4918537 0.57098114 0.88002527 0.533548 0.49756593 0.027921528 0.030980824 0.09305352 0.18326399 0.24507758 0.25154158 0.34063074 0.8119234 0.7975581 0.46697754 0.17356202 0.13899049 0.2114836 0.7448196 0.77394915 0.3781012 -0.006859727 0.017190337 -0.016433682 0.04144087 0.15370731 0.7101388 0.30138397 0.25479242 -0.21641818 0.075432494 0.097546846 0.05485402 0.05212357 0.07067415 0.11988842 0.4949269 0.49555898 0.4358076 0.43194667 -0.10545315 -0.201715 0.0016183928 0.17682132 0.48039272 0.4458663 -0.23383233 -0.16780764 0.548134 0.49803957 0.08932333 0.17370774 0.20388982 0.24358167 0.49181908 0.57219315 0.04138381 0.06107105 0.17119402 0.22610477 0.31819135 0.50040376 0.55103946 -0.38276696 -0.088331014 -0.10247615 -0.04091298 0.42534006 0.32555902 0.29312623 0.2230235 0.3039603 0.49301642 0.42619345 -0.11000176 0.14708771 0.36585307 0.25829703 -0.059328057 -0.25348735 -0.04933394 0.017274357 0.087353215 -0.041244134 0.013588596 0.48329604 0.41793907 0.055973783 -0.06484688 -0.060813673 0.30184653 0.60604864 0.57401234 -0.07023784 0.24631156 0.38885406 0.6375376 0.591272 -0.11119625 0.29729128 0.4634277 0.57079506 0.6277128 0.61591667 0.5930885 -0.0856773 -0.13119264 -0.09241695 -0.09900241 0.5832312 0.5899245 0.58119386 0.13094161 -0.0038355128 -0.0062713847 0.12869732 -0.20762312 -0.11920223 0.055403695 0.012595296 0.13498922 0.1288908 -0.05110408 0.048874155 0.19527644 -0.0839504 0.3252238 0.29346335 0.27053556 0.3203805 0.33779752 0.29528803 0.638105 0.6979469 0.76059496 0.569367 0.4137286 0.20193775 0.18036017 0.16429614 0.101529494 0.108141094 0.21255744 0.24813709 0.23778784 0.29224887 0.36627287 0.5233153 0.6264584 0.76676047 0.7825563 0.60236037 0.60269403 0.06775433 0.13826367 0.22865881 0.25937387 0.2668789 0.21176414 0.12317735 0.25365412 0.2887867 0.75117576 0.7532746 0.5637928 0.5530503 0.16055492 0.08411696 0.07127736 0.70163226 0.42319798 0.4128443 0.044332962 -0.04175928 -0.08513303 -0.05806252 -0.04956402 0.34167385 -0.1818593 -0.03632929 -0.015690885 -0.017277086 0.28420165 0.39814824 0.31198612 0.26426312 0.4067212 0.37734383 0.41073254 0.43417484 0.6869985 0.7203181 0.48041052 0.56238836 0.65739584 0.71946573 0.46877074 0.24492836 0.34928915 0.4695288 0.64221084 0.46980014 0.3978524 0.094737105 0.1993346 0.32405677 0.24762219 0.15322895 0.38720942 0.3590533 0.1400093 0.07055499 0.4631691 0.0387291 -0.18042198 -0.11470191 0.15834668 0.20863742 0.5050136 -0.09594107 -0.096010424 0.1398168 0.26476374 0.5053475 0.5617037 -0.0019047157 -0.020082854 0.15587987 0.15247981 0.44475138 0.50105435 0.50903785 0.49751085 0.026981689 0.1581537 0.13495144 0.27956793 0.31821674 0.20370488 0.16243859 0.034350924 -0.103070535 0.099617615 0.2636826 0.3474365 0.15007794 -0.033227377 -0.060419817 -0.031231474 -0.100703806 -0.08753666 0.23289159 -0.09194302 0.08095522 0.3660965 0.43341452 0.372128 0.2945806 0.37258866 0.46712443 0.4811184 0.4602108 0.2662545 0.27369604 0.24679616 0.6237551 0.56126255 0.4684161 0.2688166 0.19947553 0.2305144 0.21747504 0.22071402 0.22417298 0.20862965 0.1360155 0.10386245 0.13933513 0.19338617 0.24050397 0.21248636 0.1265087 0.26077327 0.38165298 0.4633122 0.5461844 0.6155158 0.63166213 0.11783449 0.2291238 0.113621905 -0.117740296 0.20207746 0.5465996 0.6072595 -0.031119797 -0.18435511 -0.21149507 0.56626016 -0.12918933 -0.13430284 -0.13175654 -0.10607497 0.3419711 0.32871556 0.23868439 0.1429842 0.31346166 0.3156312 0.30775845 0.577384 0.3301072 0.32581922 0.69124305 0.73611736 0.7420217 0.30193922 0.6892177 0.7223879 0.26299983 -0.38585973 -0.23535684 0.11242618 0.17152208 0.55315787 0.1627912 -0.03103491 0.09299176 -0.16321197 0.38344097 0.19945565 0.40497217 0.021899186 0.34425724 -0.30345395 0.3224689 0.36882487 0.6206281 -0.03329587 0.37820062 0.41445297 0.39595705 0.032221217 0.3662212 0.32048208 0.3771068 0.15767014 0.27801934 0.3588443 0.37204313 0.38001645 0.18429703 0.14022218 0.08613674 0.19931921 0.10062407 0.038721204 0.061279133 -0.006176572 0.12325163 0.20144181 0.41753912 0.3422901 0.32650286 0.46510363 0.52255476 0.4976587 0.40675563 0.4697919 0.51610386 0.26749602 0.23946849 0.23770565 0.23091383 0.14916877 0.1879226 0.21826473 0.1798727 0.5890603 0.5046013 0.41189605 0.29941243 0.2014538 0.22686732 0.2240001 0.21310908 0.2249594 0.2155347 0.20333008 0.09692388 0.018275738 0.08720955 0.15938449 0.19345915 0.17501341 0.09606527 0.13009484 0.12473196 0.082993396 0.1720925 0.29225397 0.42088836 0.27875504 0.58255124 0.46566528 -0.050353136 -0.09126659 0.014796726 0.11729621 0.28761226 0.20283465 0.22357267 0.60091025 -0.090104714 -0.16271631 -0.20958991 -0.2365395 0.027356826 0.16771449 0.18064025 0.028820224 0.15276037 0.13843276 0.3522458 0.23315755 0.39886856 0.6582813 0.08346598 0.72027344 0.7619599 0.066699535 0.66401255 0.70588446 0.51468295 0.4609485 0.18694076 0.49691653 0.45818514 0.07228412 0.17800713 0.50622225 0.4763629 0.39500612 0.18136832 0.06468695 0.456864 0.35099918 0.071858935 0.22609998 0.09308663 0.54238975 0.4712166 0.55587614 -0.28732538 0.29066098 0.6246949 0.6358775 0.56418055 0.48479325 0.071430594 0.30108726 0.30499166 0.32998478 0.6689152 0.6767766 0.6153259 -0.01050267 0.2513438 0.2970129 0.6720899 0.60453045 0.49224544 0.060164057 0.3643924 0.35775405 0.28575826 0.1399707 0.109809734 0.06423818 0.35221034 0.35960793 0.11890641 0.08163971 0.020879231 -0.008988608 -0.14853792 -0.07319099 0.3652919 0.11830577 0.08340214 0.077223435 0.32315308 0.5054634 0.36997908 0.4604505 0.516542 0.3416958 0.33232853 0.24129751 0.30883998 0.28803876 0.25237995 0.10770591 0.10617748 0.11438044 0.20808615 0.117331654 0.092506245 0.15287088 0.14800555 0.13443908 0.38388532 0.26898164 0.24926564 0.2548958 0.23695076 0.206963 0.17805958 0.109098345 0.0071679503 -0.039284557 -0.030848317 0.035797454 0.10076405 -0.07252257 -0.0086830035 0.45838892 0.41331905 0.3138259 0.27293724 0.24263135 0.22898126 0.0025322735 -0.02403757 0.5129719 0.4594066 0.069513366 0.027878061 0.45044965 -0.046406016 0.23286924 -0.056068927 0.10405274 0.08418199 0.10943067 0.3533026 0.5710361 -0.038584694 -0.034218043 0.6692729 -0.06454024 0.7435407 -0.021416266 0.592458 0.32665843 0.16166162 0.15871733 0.5034064 0.21997845 0.54531324 0.4087025 0.5376961 0.37581438 0.3981908 0.48472548 0.52208817 0.47777718 0.39571452 0.18624078 0.16327828 0.3652425 0.44383422 0.46402055 0.21231252 0.18949893 0.59046245 0.60684043 0.24757653 0.24011186 0.6129557 0.66781336 0.24613631 0.215155 0.22513059 0.23030825 0.6718413 0.6273198 0.49315646 0.4346227 0.23937784 -0.03931091 0.030226002 0.31608945 0.28146744 -0.013443526 0.023227043 -0.04888893 0.17054936 0.311571 0.33026576 0.005954063 0.106606916 -0.11266558 0.25427485 0.07417868 0.13299245 0.16408758 0.15060154 0.08717021 0.054346435 0.11181319 0.19212341 0.39063007 0.34383413 0.1328499 0.06657215 0.045349266 0.31529504 0.35726884 0.47737902 0.3524506 0.35305834 0.3059646 0.3256058 0.356394 0.35954112 0.30634755 0.20694083 0.22626087 0.2780757 0.09258567 0.06940435 0.056961402 0.06516391 0.09522167 0.18398064 0.19434784 0.19619548 0.087455034 0.14007202 0.20396084 0.26831788 0.277338 0.28354958 -0.054065265 -0.059710775 0.29650253 0.25361198 0.24555197 0.27088064 0.2959312 0.287809 -0.02222833 -0.03676521 -0.052781943 -0.03715255 0.2982167 0.19131455 0.17568848 0.21185952 0.17317179 0.053386517 0.053545587 0.0010247827 -0.22585508 -0.60755146 -0.048455723 0.2408118 0.23345095 -0.6104891 0.19294786 0.1279932 0.1381555 0.28025723 0.13604629 0.07549703 0.34648716 0.6127347 0.09906486 0.5187168 0.17370337 0.16743195 0.45121926 0.22396965 0.5438036 0.43265295 0.5605265 0.49823558 0.5228696 0.4857139 0.37074184 0.4669174 0.48641443 0.36258808 0.11924928 0.026344256 0.16164336 0.3136266 0.37364495 0.5471559 0.1982055 0.6215416 0.18074825 0.57809657 0.5484576 0.45215487 0.33951634 0.074279636 -0.11111245 0.24818167 0.25348732 0.22305392 0.19613907 0.49488735 0.45364326 0.3625098 -0.0757152 0.0054882057 0.004836181 0.044440687 0.13928041 0.11171864 0.08682428 0.1132032 -0.05514484 0.15745418 0.17265275 0.10531299 0.06212865 0.052501902 0.042144608 0.12850153 0.07514485 0.241841 0.33198142 0.33007103 0.30706003 0.24814947 0.30408484 0.16988635 0.029832251 -0.005901281 0.049806878 0.10524102 0.13384676 0.008366341 -0.0071709715 0.06310143 0.11664956 0.1798192 0.23884958 0.08969179 0.11292158 0.23865253 0.02298604 -0.20258525 0.18171225 0.17226535 0.2259428 0.26398265 0.28929693 0.08033845 0.06758514 0.26449504 0.1455663 0.49370983 0.5908694 -0.015901893 -0.055856325 0.01833881 0.056580387 -0.30670285 -0.31116033 0.31809616 0.40557605 0.507572 0.5244516 0.044066407 -0.018531658 -0.11220473 -0.15142131 0.19811356 0.22569817 0.029745916 0.01080063 -0.09692726 -0.12712452 0.16853675 0.046737567 0.16234887 0.13871893 0.3828063 0.08988991 0.16351019 0.33243203 0.21544975 0.40613252 0.28161725 0.4893307 0.48078084 0.23641145 0.4344781 0.4679755 0.13467537 -0.14954734 0.17153706 0.2935418 0.3727256 0.4195937 0.33388114 0.036822572 0.051099867 0.04203433 0.4923737 0.5185194 0.087203205 0.5118511 0.48150313 0.10535085 0.4438624 0.38747203 0.29376793 -0.0737008 0.09019307 -0.053040456 0.012023281 0.15623885 0.10649891 0.043072134 0.18517381 0.2572658 0.254433 0.21468842 0.11055503 0.06403528 0.031217523 0.03112705 0.005741846 0.014388214 0.15807593 0.11100548 0.27172676 0.30185157 0.28831092 0.21601024 0.16084036 0.045869615 0.188281 0.23924272 0.20860788 0.22147943 0.066637926 0.26372463 0.2979513 0.25191402 0.22428569 0.09216143 0.09354077 0.14720869 0.19328988 -0.068129316 0.018428767 0.11413433 0.16758305 0.07158964 0.10615699 0.24213254 0.2558814 0.21341221 0.07026034 0.2520753 0.22520547 0.09851088 -0.08987796 -0.16768698 0.17188916 0.13258246 0.17604335 0.17541544 0.18644476 0.44932356 0.46985042 0.57430875 0.05766575 0.19355479 0.22650304 0.25515056 0.36619973 0.49475515 0.5929282 0.56390357 0.42940566 -0.1410805 -0.116231166 -0.13662505 -0.29120535 -0.095040426 0.018010857 0.22326604 0.25837672 0.30039755 -0.2528637 -0.24542834 0.19624655 0.19798994 -0.21821204 -0.27588576 0.10384309 0.17847514 -0.2947517 0.020455949 0.17693591 -0.046336442 0.14131922 -0.18393807 0.0353536 0.15735117 0.006134289 0.36992493 0.06867814 0.19442412 0.2243891 0.14402878 0.09738806 0.31948972 0.014543135 0.32880956 0.34533298 -0.17751426 -0.3046124 -0.019911438 0.24717784 0.2995245 -0.49159604 -0.40176684 -0.25678647 0.4361788 -0.32703882 -0.1975449 0.4521733 0.4036009 -0.10279444 0.41308373 0.37421754 0.21668117 -0.07784115 -0.23896766 0.19644773 -0.039775312 0.17694423 0.19123456 0.22497375 0.20512986 0.11289278 0.20742652 0.23496543 0.23131815 0.17401332 0.21818571 0.17335212 0.22954132 0.2651382 0.32120675 0.107362576 0.08163749 0.03315509 0.050532058 0.13293514 0.20041364 0.2605994 0.26975206 0.31857154 0.2877554 0.19946818 0.15758112 0.0810766 0.10100439 0.15410057 0.64873016 0.6585798 0.64530325 0.12589775 0.053509742 0.06140541 0.099870846 0.12235039 0.15690503 0.17382665 0.6393504 0.64987946 0.6156947 0.5639754 0.11223218 0.12950274 0.13722667 0.12897533 0.56403244 0.58161294 0.5819378 0.5919755 0.51547575 0.045529064 0.12616183 0.124423236 0.47017938 0.46822774 0.54520184 0.45341104 0.06395691 0.16684458 0.5484179 0.33720908 0.35265535 0.36468583 0.3402029 0.32473588 0.2546885 0.21285439 0.15082997 -0.041206792 0.2169685 0.6115825 0.5642813 0.47478437 0.3206315 0.29243633 0.2620095 0.2617008 0.20947665 0.21400325 0.5959045 0.54010576 0.42215514 0.40466654 0.21113849 0.22108766 0.45500144 0.061437372 0.21734045 0.18971278 0.32102647 -0.07594383 -0.05251722 -0.20560193 -0.17182758 -0.1716896 -0.20510681 0.2191321 0.2208309 0.17980997 0.2029692 -0.4027007 -0.1891298 -0.14676708 -0.3065091 0.20438698 0.11856295 -0.28526103 -0.3957526 -0.413325 0.09255986 0.13587224 0.12501025 -0.41703433 -0.13742858 -0.19920555 -0.23546787 -0.3283851 0.0006738901 0.0071136653 0.45135838 0.46886146 -0.11814439 0.40831602 0.48930705 0.5010707 0.37485778 0.4640394 0.49784946 -0.06842104 0.45295864 0.48855692 0.14621991 0.005847916 0.07706909 -0.05124314 -0.14938489 0.14613588 -0.01827893 0.12661001 0.16179076 -0.1600567 -0.15479887 0.30074042 -0.1223335 -0.10565894 0.36602372 -0.049864545 -0.03554668 0.009654127 0.08300215 -0.27473632 0.06534465 0.09867826 -0.14237756 