# vtk DataFile Version 2.0
Really cool data
ASCII
DATASET POLYDATA
POINTS 2700 float
62.238373 10.852679 40.76159
62.179993 10.91901 41.14241
62.322994 11.151796 40.22962
62.109314 11.523154 40.582264
62.128494 11.50147 41.365723
62.38165 11.148242 41.886196
62.17796 12.062371 40.460564
62.152317 12.251516 41.330105
62.343678 13.224625 42.075626
62.472748 14.13837 41.08738
62.37922 14.440153 42.849957
62.287266 14.531408 43.62911
62.352108 14.934034 44.750443
62.29129 15.524392 43.223755
62.34853 15.77704 45.32234
62.372547 16.823456 34.99324
62.256294 16.7869 35.59139
62.29642 16.828104 36.269314
62.07412 16.1803 43.88035
62.0099 16.688656 44.68511
62.033146 16.741093 45.151276
62.370785 16.57378 45.940945
62.43743 17.198748 34.91559
62.226803 17.46991 35.57306
62.279427 17.453745 36.14988
62.009888 17.469995 44.446896
62.06918 17.23297 45.339603
62.346855 17.28522 45.73875
62.30917 17.953142 35.434414
62.34044 18.344587 43.50255
62.338287 18.408155 44.4719
62.262627 17.869333 45.174957
62.858067 10.112278 40.729042
62.878937 10.006632 41.26927
63.000584 10.115633 42.05833
63.369034 10.328443 46.716534
62.66346 10.745231 40.10556
62.509483 10.542971 40.602962
62.526447 10.50902 41.64308
62.959938 10.543551 42.364418
63.37193 10.802329 45.655815
63.214005 10.672032 46.619648
63.29872 10.835583 47.283527
62.63906 11.320707 39.86626
62.57836 11.666031 42.506107
63.303425 11.307719 43.610214
63.078743 11.504807 45.884686
62.92792 11.373263 46.81061
63.176212 11.395332 47.43972
63.281956 11.639219 47.849308
62.592052 12.286689 40.029854
62.54195 12.777185 40.438507
62.571053 12.265222 42.76208
62.810516 12.721386 43.42642
63.08033 12.715361 44.650692
63.09763 12.740955 45.23713
62.99696 12.177967 47.192825
63.240856 12.764717 48.022934
62.569996 13.6168375 40.72653
62.82119 13.788095 44.76779
62.69335 14.021405 45.68986
62.899635 13.0976715 46.35761
63.068073 13.442675 47.661892
63.29774 13.192703 48.109806
63.224655 14.49854 39.875114
62.52056 14.317025 44.43749
62.88133 14.444716 46.76378
62.872795 14.412824 47.09464
63.215008 14.278267 47.929276
63.088108 16.106358 34.63718
62.852345 15.820269 35.4272
62.807243 15.880011 36.20569
63.301323 15.786955 37.219666
63.439735 15.333538 39.983006
63.120754 15.349834 40.806267
62.619778 15.308057 42.141396
62.697056 15.644291 46.613285
63.245304 15.110483 47.70378
62.83975 16.603176 34.493797
62.506588 16.690626 36.62069
62.697937 16.980345 37.115498
63.321568 16.018343 41.084908
63.02803 16.187849 42.242687
62.749874 16.357086 46.53376
63.042248 16.154547 47.062634
63.23638 17.781301 33.176247
63.038326 17.618187 33.663006
62.516632 17.640196 34.617134
62.49975 17.346123 36.640564
62.616764 17.687487 42.647495
62.699337 17.35423 46.142708
63.21038 17.366148 46.614883
63.16377 18.347271 33.162354
62.925175 18.378082 33.498928
62.71184 18.061739 34.204018
62.566803 18.54076 35.417183
62.72825 18.484741 36.089863
63.026123 18.510763 36.780468
63.07226 18.418808 42.22995
62.617245 18.290995 42.78178
62.469776 18.475122 43.399803
62.49716 18.361708 44.709923
62.752857 18.347971 45.478985
62.93113 18.110014 45.971443
63.287357 19.332047 33.52318
63.048576 19.780905 34.87476
63.084522 19.725574 35.473415
63.268986 19.480639 36.274025
63.250824 19.632118 42.990868
62.782738 19.281155 43.625397
62.810966 19.207638 44.257195
62.99823 19.056614 44.976807
63.343884 20.298517 34.52933
63.244034 20.08596 35.369484
63.319176 20.005375 35.863014
63.221527 19.791656 43.22189
63.19274 19.705767 44.01839
63.619194 10.078708 40.108913
63.630596 9.759762 40.67403
63.584625 9.630753 41.428913
63.47607 10.065273 42.43947
63.74214 10.172156 42.729923
63.58546 10.307402 46.096127
63.661423 10.134996 46.49056
63.954357 10.131222 47.408844
63.652164 11.091395 39.43846
63.631355 10.6785 39.59927
63.97997 10.497919 43.77452
63.444683 10.430971 45.874172
63.485264 10.563951 47.358692
63.697025 10.863108 47.953465
63.284847 11.345467 39.475464
63.724865 11.70696 48.271374
63.653496 12.431315 39.202065
63.336555 12.004857 39.477524
63.589954 12.622749 48.48595
63.472782 13.846957 48.356647
64.11427 13.420862 49.05362
64.0599 15.185145 34.87489
63.98982 14.972 35.785095
63.504776 15.20849 36.580654
64.2028 14.540369 37.186165
63.730244 14.569742 48.24099
63.95274 15.941384 33.67656
64.19985 15.393776 34.27528
63.470165 15.550542 35.228355
63.437473 15.51886 47.81191
64.02673 16.550413 39.892677
63.42272 16.23666 47.53174
63.930214 16.235952 47.73268
63.69447 17.610353 32.921673
64.25596 16.821136 39.624256
63.671757 17.36116 46.82401
63.70194 18.402206 32.800022
63.61662 18.334105 37.370564
64.08266 18.16952 37.71065
63.613438 18.154835 46.327084
63.887627 18.060574 46.594326
63.745132 19.106522 32.913246
63.568996 19.496372 33.317554
63.671375 19.385448 36.771545
63.946987 19.662884 42.128452
63.626366 19.323626 45.05604
63.936417 18.865355 45.830906
63.807835 20.281021 33.719814
63.428207 20.387947 34.757614
63.581425 20.538752 35.33219
63.74868 20.287477 36.159866
63.727535 20.046122 42.957893
63.735226 20.121853 43.679115
63.650887 19.812092 44.50093
63.949257 20.937609 34.44377
63.8794 20.854445 35.32695
64.049644 20.721731 35.876102
65.33611 3.271137 47.29532
65.13892 3.8938358 46.72516
65.11641 3.6930747 47.392467
65.121895 3.8357716 48.02098
65.15108 4.618323 46.252598
64.92308 4.4867315 46.736023
64.80922 4.6285324 47.571686
65.05463 4.475289 48.27312
65.34949 4.184854 48.8148
65.24893 5.0300226 46.07987
64.95621 5.305041 46.628983
64.79876 5.2564616 47.404938
65.16207 5.836409 48.43887
65.40655 5.1548824 49.019775
65.24283 6.07205 46.53387
65.16134 6.7156644 47.752583
65.01172 5.944112 47.969322
65.41797 6.131776 49.2304
65.402695 6.9314694 46.953506
65.38279 6.9620433 48.60807
64.61153 9.991594 40.20414
64.33599 9.794273 40.708057
64.281876 9.658816 41.448154
64.60605 10.398122 43.11414
64.684296 9.845177 44.87142
64.23802 9.856764 46.478924
64.19135 10.7772875 39.418255
64.17145 10.361884 39.704243
64.94875 11.5984125 49.185783
64.68533 12.926383 38.74897
64.531364 12.495932 49.4329
65.204605 12.790989 50.30085
64.62991 14.130681 37.190453
65.09113 13.267104 50.112663
64.66152 15.211574 33.968044
64.58664 14.915693 34.68613
64.588326 14.682162 35.38396
64.46074 14.456749 37.02837
64.79156 14.068851 49.1776
64.61231 16.104904 33.222443
64.32045 15.737505 33.622856
64.55513 14.943962 48.479633
64.53833 16.500025 33.018417
64.49589 16.086975 47.84843
64.38758 17.69595 32.603195
64.75734 17.765203 41.241924
64.342384 17.33039 46.93183
64.779686 18.38678 32.40136
64.54153 18.773369 32.527832
64.58955 18.709925 37.499443
64.5321 18.197336 46.42685
64.65471 19.05368 32.512238
64.71893 18.966208 41.216557
64.59151 19.127012 45.566998
64.67097 20.194109 33.18937
64.77127 20.656296 33.504482
65.07619 20.591219 41.366882
64.36037 20.567312 42.762177
64.77026 19.976456 44.55606
64.76413 19.81301 44.77704
64.561066 20.995432 33.843605
64.539894 21.282936 34.53125
64.51032 21.168148 35.309937
64.3152 20.724606 36.072216
64.605385 20.79456 42.07121
64.77617 20.98302 42.608643
64.376595 20.696262 42.980648
65.811226 3.1679502 47.00138
65.72504 3.1205053 47.534748
65.888435 3.1452425 48.263203
66.12857 3.2891827 48.83429
65.815346 3.8796043 46.252415
65.53791 3.6033604 46.61469
65.585205 3.545937 48.43536
65.873055 3.7188618 48.97151
65.64834 4.4537954 46.044743
65.74566 4.870579 49.48309
66.13052 4.465606 49.82418
65.57912 4.9858904 45.967556
66.12402 5.3668504 50.019463
65.45386 6.5784807 46.742027
65.55191 6.0972214 49.19428
66.078476 6.253409 50.027504
66.04042 7.9477825 50.10212
65.349396 9.30175 46.839138
65.68858 8.6859045 48.492245
66.18693 8.016939 50.208157
64.8218 9.897138 40.868122
65.64344 10.260009 42.007847
65.92508 9.713309 44.951645
66.1995 8.9572 49.78427
64.94523 10.684815 39.706474
65.77815 12.03033 39.051273
66.157974 12.075312 51.052505
65.908134 13.34657 36.693775
65.4896 13.137879 37.563644
65.35476 12.411445 38.567387
66.16186 12.5735035 51.3551
65.404915 14.088356 35.65687
65.671974 13.561594 36.29533
65.85964 13.829789 51.224243
65.44609 15.321172 33.727066
65.67548 14.506337 50.114075
66.038315 14.310794 51.413204
65.20935 16.093548 32.95393
65.68548 15.374579 48.1005
65.99816 15.0697975 49.825397
66.05363 15.130737 50.208096
66.27798 15.087776 51.29022
65.404076 16.400871 32.817684
65.34915 15.9628 47.518795
65.07333 17.68759 32.396683
65.38086 17.263096 32.496616
65.88652 17.470749 40.117447
65.1008 17.409967 46.581234
65.1676 18.35423 32.42562
65.73372 17.960876 38.052673
65.796364 18.773249 40.88164
65.49529 18.62746 45.44015
65.407364 18.721905 45.643417
65.460846 18.84849 32.53488
65.193886 19.192926 37.148315
65.48998 18.91289 45.363052
65.19549 20.260818 33.225792
65.16499 20.246616 36.55925
66.2197 20.380924 40.409008
65.923004 20.647429 40.600452
65.243774 20.42027 44.16681
65.14558 19.814156 44.837585
65.30172 20.972794 33.910355
65.26802 21.200638 34.51362
65.340256 21.156515 35.28122
65.92936 21.28203 40.801357
65.69237 21.58734 41.442688
65.67603 21.493656 42.46687
65.48424 21.030104 43.34076
66.15439 21.906963 40.950653
66.05238 22.006216 41.276894
66.0171 21.81557 42.170254
66.35046 3.1650872 46.91151
66.32941 2.9401674 47.540432
66.46041 3.022193 48.284733
66.800446 3.232305 49.171246
66.340294 3.777429 46.29021
66.275566 3.453461 46.53477
66.64815 3.5942914 49.64084
66.74952 3.7957919 49.990223
66.38329 4.36897 45.982376
66.65689 4.367338 50.214622
66.30657 5.3012557 45.97021
66.693306 5.1933575 50.40374
67.08351 5.376537 50.666645
66.24913 5.878955 46.088528
66.629265 6.5603614 50.371197
66.41461 7.8175473 50.44238
66.89112 7.534242 50.60302
67.15786 8.879731 44.61215
66.826996 8.152162 50.5578
66.43519 9.648641 43.52105
66.38836 9.270135 50.11171
66.34945 10.7371025 41.383278
66.7068 10.461258 50.03959
66.87866 10.845412 51.240955
66.21415 12.1508875 39.13839
66.50577 11.778984 51.329624
66.85365 11.833966 51.89435
66.669945 13.337643 35.654568
66.47714 13.099174 36.72921
66.99395 12.63518 38.362293
67.05405 13.047872 52.3885
66.94936 13.560307 34.968918
[...]
POINT_DATA 2700
SCALARS features_00 float 1
LOOKUP_TABLE default
0.7068755 0.68179333 0.6994616 0.6642553 0.6215674 0.60065866 0.6220709 0.5467149 0.32803997 0.22614998 0.1971528 0.1783956 0.2323226 0.2667399 0.3444538 0.57684326 0.58193934 0.58987606 0.3538987 0.42154035 0.43124697 0.42031994 0.5746338 0.57083964 0.5666266 0.47800696 0.46782517 0.4682176 0.5580695 0.49721044 0.53016514 0.5081999 0.7673984 0.74632263 0.637222 0.3943154 0.7270924 0.7374209 0.67142236 0.5585798 0.3432581 0.39714947 0.40576798 0.6871631 0.4688208 0.2849072 0.355336 0.39562783 0.3942532 0.37480438 0.6090194 0.52226466 0.3388957 0.13373293 0.05491712 0.13736422 0.36312187 0.30527195 0.319862 0.10726145 0.19856134 0.27862006 0.2999025 0.2847359 0.19749917 0.14986911 0.30119303 0.30860165 0.29443765 0.5256384 0.53571904 0.5598758 0.48277822 0.12210337 0.115348965 0.18188928 0.3511999 0.33279806 0.5584079 0.6011822 0.5893594 0.08510715 0.16994254 0.400513 0.38776278 0.5626382 0.56034845 0.5687727 0.57123125 0.37052697 0.46546748 0.45292568 0.5801686 0.5768622 0.5673703 0.5424684 0.53542346 0.5399124 0.39674807 0.44365805 0.49505982 0.5344935 0.5327618 0.51297086 0.6580218 0.56442213 0.5272122 0.5183718 0.454857 0.5067611 0.5402154 0.5607232 0.6504197 0.5558611 0.5343241 0.46918336 0.5279107 0.72971904 0.75858593 0.74710524 0.5619364 0.4905065 0.35632336 0.3691746 0.3860306 0.61265695 0.66715515 0.21697685 0.35387933 0.40497127 0.3897144 0.6409192 0.34768698 0.49128908 0.58627284 0.2888009 0.26558894 0.2473746 0.36462283 0.30383992 0.3643582 0.19409388 0.28265315 0.42634138 0.3874455 0.4289549 0.3545399 -0.03455746 0.38981742 0.38893777 0.5370847 -0.118226156 0.44323328 0.5640292 0.5284045 0.42036915 0.49047008 0.46353093 0.6001313 0.66660553 0.5282718 0.3977472 0.5510028 0.49562025 0.7608576 0.6346153 0.6010564 0.5413774 0.44635388 0.5015788 0.5544286 0.7486385 0.6440884 0.61400187 0.9111283 0.9064014 0.9050401 0.8394829 0.87486565 0.886144 0.84463155 0.7453977 0.6962884 0.85005164 0.8100376 0.77430993 0.5716942 0.57359946 0.7715436 0.5739672 0.62254894 0.469011 0.61509097 0.4278237 0.6063679 0.671461 0.6818427 0.33212966 0.08661292 0.32251307 0.55285287 0.6274237 0.22165638 0.15321968 0.24240504 0.21830942 0.122833684 0.23229733 0.34202856 0.31502908 0.25560153 0.1831781 0.2006721 0.36934453 0.38510072 0.29365915 0.40253335 0.38162312 0.49841344 -0.006147392 0.4105534 0.50966984 0.54535246 0.37665132 0.41712824 0.55319965 0.25979778 0.44010967 0.7056223 0.7786999 0.50517994 0.4708873 0.46012723 0.4431789 0.8161286 0.8194663 0.7610533 0.6384448 0.47030628 0.5153506 0.47717392 0.91218305 0.9035969 0.83370626 0.76752895 0.8846499 0.9054912 0.79499614 0.72477657 0.868083 0.5747641 0.62757593 0.84525406 0.50211954 0.6999419 0.47001344 0.41503885 0.27828482 0.2204999 0.21357453 0.28077185 0.5751141 0.3748715 0.042759087 0.20504981 0.43072057 0.06773027 0.19070828 0.09237334 0.0075577423 0.09223329 0.2513463 0.14821088 0.11519249 0.35316902 0.26927805 0.32208866 0.39754355 0.3063113 0.19939083 0.3549805 0.3982563 0.42401907 0.30316642 0.28835434 0.44950223 0.37300766 -0.21758494 0.34318653 0.46719778 0.00028054416 0.15041278 0.36099285 0.3730126 0.43842965 0.3150529 0.37574813 0.6841515 0.6328126 0.5807448 0.57964754 0.46678895 0.40665174 0.7820836 0.806478 0.8243693 0.65882653 0.64994633 0.6158812 0.5334291 0.74006915 0.71807367 0.6792698 0.89164644 0.8970874 0.8371955 0.7704184 0.8628174 0.8802444 0.72856647 0.71811044 0.8366459 0.6707231 0.8148539 0.54308677 0.5280812 0.78962994 0.3878233 0.29451638 0.28551695 0.139091 0.21987833 0.036666334 0.14358373 0.16015421 0.021903299 0.1652179 -0.02596445 0.19485179 0.22720143 0.13417937 0.09287692 -0.074894115 0.31890237 0.10591669 0.37874526 0.36750406 0.18861787 0.43261206 0.16280423 0.4317838 0.44025394 0.13446093 0.11011329 0.40290725 0.41680926 0.41619506 0.16020842 -0.023286328 -0.11530037 0.29387605 0.18634126 0.59795016 0.3351588 0.67988366 0.6169328 0.49322462 0.40112686 0.7355243 0.70087045 0.7465236 0.7634657 0.5924469 0.4859978 0.8222095 0.83060217 0.7541904 0.85851467 0.8353553 0.8141773 0.7903253 0.7770027 0.80795 0.81295353 0.7705472 0.76358664 0.69870186 0.6509619 0.6117758 0.5671645 0.36148548 0.22475411 0.15932725 0.08511081 0.25599313 0.21134785 0.06948852 -0.080334045 0.15611774 -0.06739244 -0.100507915 -0.096450314 0.26263186 0.0669555 0.26654214 0.3266537 0.30779094 0.24812096 0.14680985 0.38122767 0.318559 0.2792783 0.40048364 0.39383417 0.1749968 -0.29515886 -0.13017339 0.24961126 0.4045069 0.4127904 -0.009021359 -0.05629754 0.33490998 0.38804287 0.38859686 0.37551382 0.2622493 0.15989 0.1449835 0.22883594 -0.07245397 0.24456894 0.24037027 0.06485969 -0.04670205 -0.04045187 0.643268 0.6131959 0.76435935 0.47539866 0.38347626 0.8610723 0.71576405 0.636967 0.89275134 0.919454 0.905772 0.8197831 0.80687714 0.8158872 0.7060648 0.74999094 0.81786156 0.71976006 0.66283876 0.5425831 0.49028197 -0.018205568 0.3268378 0.42245263 0.25949976 0.159042 -0.22523871 0.10429798 0.22146814 -0.076622635 -0.05004992 0.15571915 -0.13717479 -0.08623345 0.17097113 -0.15843594 0.3200423 0.22639768 0.13664724 -0.1469117 0.29340604 0.3359942 0.34371838 0.30205536 0.36323392 0.32043082 0.3816835 0.21403196 -0.3534209 0.20746389 0.37748128 0.37840015 0.25840312 0.090918094 0.28230208 0.3326531 0.36312854 0.35406652 0.3514355 0.42608607 0.34227514 0.095543586 0.35936767 0.35215405 0.44687217 0.43947297 -0.061415046 -0.0531936 0.26216772 0.22105573 0.42038226 0.11450355 0.027123302 -0.059194356 0.7026123 0.36613846 0.33434892 0.4520543 0.8438914 0.8731071 0.7201861 0.9060961 0.9187319 0.874175 0.77141154 0.649547 0.5626299 0.6142819 0.33955574 0.24531133 0.27540892 -0.25349265 -0.21060172 0.07393854 -0.05087461 0.18460314 -0.21651754 0.19870868 0.13247328 0.22110723 0.1677261 -0.035716556 0.2816848 0.16139701 0.35091484 0.324413 0.27374685 0.29465908 -0.42087993 0.34748 0.2950526 0.090203434 0.35526305 0.27872187 -0.17369102 0.325584 0.33788836 0.36332613 0.42809922 -0.187009 0.22630996 0.26887938 0.31042075 0.35742566 0.33999425 0.32685912 0.45915088 0.116411135 0.484722 0.4745022 -0.048502065 0.63266027 0.60151345 0.4473995 0.4212815 0.49778062 0.4891158 0.33307356 0.74752426 0.65670574 0.48913974 0.4811196 0.4333963 0.8095583 0.8137557 0.51357555 0.046449732 0.48347777 0.47197926 0.47321704 0.08648237 -0.11272503 -0.24797183 -0.29744893 -0.14573497 0.29128185 0.37260193 0.5037819 0.30356902 0.34859514 0.3654257 0.47983637 0.41449076 0.43512714 0.3971656 0.3474756 0.31878716 0.3887719 0.34831756 0.3441944 0.22815967 0.14393416 0.2645511 0.3034028 0.2288007 0.26295024 -0.17145333 -0.4493928 0.15314728 0.29929823 0.2721389 0.21007714 -0.26298407 0.24035552 0.17384824 -0.21038982 -0.02107537 0.35712785 0.3040649 0.2982177 0.11841261 0.3365984 0.39149284 0.103505224 0.22655463 0.2812823 0.3602958 0.34077132 0.32446656 0.32803884 0.48315513 0.50063086 0.44118345 0.4933418 0.49770486 0.31373706 0.21071604 0.49240464 0.48893076 0.4705084 0.44628394 0.5109786 0.5801382 0.49992502 0.503684 0.50466704 0.5202307 0.47933266 0.40944225 -0.27317074 0.53212994 0.55943334 0.5665083 -0.22424062 0.5483117 0.5575151 0.44734162 0.43381596 0.17867069 0.52906406 0.54694843 0.44505447 0.45288312 0.33881816 0.41484624 0.40326375 0.38931587 0.3931855 -0.25338405 0.33873063 0.39742583 0.117287636 0.32415578 0.40870792 0.24931148 0.02780519 0.2918883 0.35845563 0.3139668 0.4137752 -0.3655935 -0.1857942 -0.17654838 -0.14183962 0.33999002 0.07201447 0.093010455 0.023407198 0.35096413 0.36214954 0.34626418 0.13016559 0.24229887 0.24915819 0.34094244 0.33848715 0.33804086 0.45838678 -0.24072894 -0.10766542 0.06862406 0.48347056 0.018478734 0.46678394 0.14281633 0.48077416 0.47625285 0.30142987 0.45091856 0.38860103 0.29182985 0.49191713 0.47048843 0.468428 0.40655452 0.43220568 0.45775712 0.46180212 0.40603116 0.22917208 0.30689475 0.19762108 0.27820817 0.34437782 0.45505476 0.3327413 -0.38011676 0.060384527 0.4659966 0.55918556 0.5627365 0.25152248 0.56636864 0.564577 0.4150468 0.38812256 0.15710801 0.5533809 0.41935936 0.51813805 0.3695319 0.39332533 0.15121278 0.4942847 0.5720046 0.5295867 0.48734632 0.54970545 0.5258486 0.47301874 0.5174639 0.4853512 -0.34438434 0.2922479 0.33202007 -0.25372517 -0.2554075 -0.17236254 0.2852205 0.34354693 0.24340418 0.17398652 0.34069735 0.35882625 0.19918117 0.27933103 0.25656134 0.02639737 0.4888423 0.10961279 0.47173667 0.37984705 0.21058396 0.14513189 0.4678346 0.48706186 0.49794734 0.45917073 0.2077598 0.7166016 0.6871568 0.58841133 0.5135094 0.68924963 0.64126956 0.51695025 0.44357064 0.49491328 0.46189108 0.41902477 0.42763957 0.39837825 0.35694572 0.19909187 0.28443283 0.39788163 0.30224368 -0.060282867 0.3494689 0.26242822 0.291117 -0.23937002 -0.13627729 0.41600683 0.5074265 0.5450779 0.22622852 0.5483675 0.54408634 0.2827341 0.5414908 0.274706 0.53988296 0.27215028 0.56129396 0.50432557 0.58667547 0.5868417 0.61930704 0.58638394 0.5741838 0.6120941 0.4725492 0.51100105 0.58405864 -0.41416657 -0.43034172 -0.28846785 -0.24599788 0.44994497 0.31196523 -0.0008687191 -0.2439071 0.2302798 0.23438713 0.1712998 -0.15835628 -0.22883502 0.30598903 0.3482368 0.26297536 0.3191047 0.29808143 0.10027391 0.27840176 0.28686416 0.2808199 0.3496594 0.44286484 0.50352097 0.41572893 0.2767277 0.12381436 -0.02502887 0.4290293 0.5003126 0.46739593 0.29202038 0.20696376 0.11374495 0.40942383 0.42982745 0.4530725 0.49311566 0.45793688 0.53641737 0.5487573 0.29640162 0.5556494 0.60246277 0.6361022 0.56286496 0.5313397 0.46780813 0.48208642 0.48253775 0.44959348 0.5891332 0.5795156 0.4695594 0.64862275 0.6430019 0.6705637 0.71749985 0.72119725 0.54567593 0.55333424 0.5292717 0.525246 0.4888004 0.6768742 0.71096444 0.74452794 0.77117884 0.60207343 0.58250356 0.72553146 0.76348495 0.7859039 0.81241155 0.7847706 0.7186395 0.76950663 0.77024615 0.71183264 0.59652543 0.52058244 0.42481738 0.7033874 0.70661896 0.4203916 0.3907433 0.59893835 0.5787559 0.1511457 0.32207865 0.3080856 0.25938296 0.18589984 0.26769534 0.24158476 0.1506725 0.22273369 0.26328367 0.21330257 0.4514751 0.20211047 0.16092719 0.3581409 0.5107168 0.10712778 0.49314344 0.13841902 0.18056935 0.5270629 0.17432916 0.5430067 0.55300057 0.47264642 0.3011709 0.5842185 0.6364808 0.57488954 0.56241155 0.6715208 0.45593274 0.67684555 -0.7461741 0.091313645 0.5825003 -0.33519086 0.4241057 0.46435946 -0.044356182 -0.24005654 -0.24146311 -0.2397942 0.16422558 0.27618393 -0.16157451 0.3305564 0.018131077 0.00028611254 0.26863194 -0.075429626 0.18486647 -0.037098013 -0.12887596 0.038954113 0.053818587 0.24346343 0.12845889 0.18270206 0.24073334 0.15356869 0.14302492 0.20462549 0.26906186 0.26719043 0.4208752 0.079445094 -0.32369822 0.28694803 0.2827787 0.40770712 0.5409381 0.26569015 0.4299447 0.34987843 0.2204549 0.46691817 0.3984749 0.30842417 0.5862342 0.6031372 0.6255783 0.5124509 0.5690429 0.68119216 0.47859752 0.42959073 0.66439736 0.6887242 0.79332113 0.6017159 0.6428116 0.64374614 0.59219885 0.5237572 0.6625559 0.68937594 0.7121431 0.7537172 0.78223956 0.782721 0.65900785 0.66607344 0.66011083 0.62430626 0.8652471 0.8559278 0.77551484 0.63551277 0.8218955 0.8217645 0.54552096 0.5286598 0.7343741 0.5476317 0.07342937 0.23974767 0.15091756 0.17994116 0.18090865 0.2611758 0.13347583 0.15138648 0.1801245 0.07170518 0.093154736 -0.019049339 0.12158659 0.3241285 0.1313036 0.08188726 0.4549557 0.39649242 0.20168841 0.5986272 0.52294743 0.41065133 0.53265584 0.59414506 0.37575853 0.56905234 0.09121626 0.51940644 0.28962502 0.41114566 0.05784116 -0.21194604 0.42671442 -0.21153104 0.20704606 0.40591204 -0.023346774 -0.15848058 -0.24251407 0.11893911 0.28038326 0.3114974 0.34787568 0.37448943 0.076959774 -0.08974927 0.30119824 0.3458684 0.14664772 0.15799505 -0.026853997 0.24623618 0.17928109 0.20401883 0.5068243 0.38801455 0.5096821 0.5726087 0.60301995 0.62214017 0.54990643 0.41280922 0.3583699 0.62104225 0.607251 0.55058146 0.6246378 0.6483233 0.6873949 0.7215613 0.71222275 0.669333 0.66483045 0.6327297 0.57921606 0.8627255 0.8650197 0.7850482 0.6722696 0.62264013 0.7878711 0.80669916 0.5649728 0.2993961 0.4352411 0.10882286 -0.09264599 0.28703964 0.14486584 0.15229784 0.15622821 0.13590044 0.06445746 0.09687132 0.10085839 0.052877754 0.038229924 0.14660612 0.1439067 0.12488555 0.1363606 0.25415692 0.009117761 0.30204046 0.1443048 0.48653644 0.33471355 -0.050019324 -0.34586507 0.48307672 0.35288167 -0.29254735 0.536046 0.47205234 0.0339629 0.15481189 0.17593962 0.33391035 0.2923854 0.2954801 0.33978644 -0.33111185 -0.29201457 0.38058174 -0.27158237 0.43619198 0.49760035 -0.083955884 0.35060596 0.4882214 0.54535127 -0.07385935 -0.20311579 0.36920488 0.34453943 0.5205816 0.58205974 0.05420319 -0.119753994 0.3620232 0.38583183 0.37014788 0.30101737 -0.019109234 0.43567875 0.21596575 0.12386303 0.41778404 0.52614534 0.53685766 0.32825267 0.14115773 0.38383427 0.21046428 0.4388328 0.5576757 0.4875229 0.390764 0.59073675 0.56725514 0.55497414 0.5101001 0.5215252 0.535113 0.658295 0.65808237 0.62338525 0.80096847 0.77343696 0.71442103 0.6489233 0.7056349 0.7009032 0.60920954 0.58756745 0.535677 0.5717677 0.48741847 0.61745375 0.63860416 0.66603696 0.2515704 0.675733 0.08891551 0.61111605 0.6999613 0.14291757 0.17362055 0.18665957 0.17581561 0.62661064 0.13280909 0.07351088 0.037995204 0.05761813 0.1664945 0.24424496 0.17789674 0.16632032 0.28303644 0.1763887 0.27884376 0.11360708 0.16133797 0.15215178 0.13699119 -0.2182869 0.33224222 0.24956045 0.09085426 0.41400847 0.51000655 0.5278884 0.59802294 0.5924151 -0.056249008 0.56778705 0.6411431 -0.01335752 0.022298608 0.38556558 0.48970366 0.60613155 0.6550572 -0.012729362 0.30783862 0.2634154 0.67047065 0.3134207 0.6101413 0.70865583 0.74110514 0.1977418 0.26892385 -0.14853448 0.5308553 0.5667088 0.46003318 0.34524828 0.54954255 0.67848957 0.7466075 0.23655677 0.60883355 0.5740483 0.55654085 0.59599113 0.5222734 0.4701218 0.3702037 0.46443987 0.56651056 0.6422982 0.6600679 0.111737624 0.6860364 -0.050338224 -0.058280185 0.6940323 0.18734057 0.15709102 0.124416396 0.45454627 0.16766691 0.20250285 0.21842967 0.26734677 0.18543987 0.15659964 0.23225638 0.24644911 0.21973486 -0.18612105 -0.14145605 0.45345932 -0.14711094 0.522482 0.5511252 -0.22294119 0.52602917 0.5178894 0.4876002 0.052801337 0.5316191 0.5934896 0.359729 0.6130461 0.6273198 0.49339324 0.37680656 0.66827625 0.6634104 0.6077228 0.5044929 0.33591053 0.1887039 0.3169221 0.36533982 0.52759576 0.6450003 0.66763496 0.43244612 0.022732243 0.0037732571 0.63428867 0.0030532628 0.7016573 0.11721865 0.77951753 0.1477294 0.16272359 0.10079255 0.0420705 0.0031803288 0.17979473 0.5549714 0.6409913 0.7345963 0.795309 0.7975352 0.35660475 0.4349236 0.52024615 0.5822412 0.19972204 0.6056266 0.63829577 -0.091050826 0.078303166 0.6645632 0.041058898 -0.062656865 -0.05177956 0.6429151 0.09585637 0.036171585 0.023657583 0.5072674 0.16808568 -0.06295447 0.23901024 0.1705702 0.16617596 0.20161447 0.18380369 0.16894785 0.21185987 0.102446556 0.19206318 -0.058161136 0.32929304 -0.113215715 0.43713373 0.51041085 -0.1626651 0.6099435 0.5592996 0.5377785 0.53546613 0.33577898 -0.11578411 0.51619065 0.524423 0.5226881 0.47344458 0.40217423 0.22413725 0.5143068 0.5131428 0.60264516 0.552321 0.579997 0.6930307 0.68535304 0.27962968 0.27927533 0.6424846 0.64579284 0.69220954 0.6563663 0.23390666 0.5277815 0.6175791 0.64832914 0.67302835 0.66337246 0.54191905 0.2966767 0.10049593 0.62044305 0.21845484 0.28086922 0.668162 0.15029664 0.17041361 0.75374305 0.193343 0.23230058 0.22275196 0.20218514 0.1101816 -0.026215516 0.28007615 0.16704313 0.6817559 0.7540907 0.78852177 0.7873892 0.22031769 0.37266025 0.3898129 0.3752867 0.32042548 0.33355033 0.38211656 0.44274485 0.50989735 0.28231686 0.46625084 0.57894623 -0.19323532 -0.16953799 0.60088515 -0.042418737 -0.08971116 -0.09205729 0.1450156 0.055340853 -0.12922806 -0.16931541 0.13181974 0.07625672 0.15746757 0.13485038 0.061425608 0.21440142 -0.0050145835 -0.07855133 0.563017 0.64048827 -0.11318815 0.6116486 -0.12540708 0.564792 0.5397942 0.46834552 0.41578633 -0.070496395 0.5132135 0.5262277 0.4991414 0.4606946 0.5072505 0.53441536 0.55300605 0.5579403 0.5574491 0.67875093 0.079373576 0.278563 0.45685583 0.5096672 0.5919738 0.69191396 0.6846484 -0.00041635334 0.5986719 0.68030286 0.60887676 0.539385 0.43935937 0.2847481 0.53501385 0.34991604 0.2543727 0.11046593 0.14782703 0.5787717 0.65772927 0.62680626 0.22601415 0.24881804 0.23637456 0.16268723 -0.057292633 0.11491134 0.6855869 0.66504484 0.72074974 0.35330734 0.39796937 0.3463723 0.25404426 0.2032356 0.38402307 0.31141368 0.34155717 0.3359418 0.27008465 0.2825655 0.34266177 0.35907894 0.028916888 0.10723511 0.18019417 0.3592618 0.69020593 0.67366886 0.24058598 0.62167156 0.4529099 -0.13010852 0.2743741 0.41954154 0.19956645 -0.16464216 -0.271671 0.077408224 0.070561096 0.03888886 0.04344716 -0.0250751 -0.12222189 0.08489004 0.05091823 0.087956965 0.27841634 0.13410546 0.37118083 0.55611765 0.65956295 0.64016986 0.40694916 0.35433495 0.01735545 0.57633543 0.45391947 0.43858874 0.53545034 0.47936392 0.50622845 0.50570893 0.56682324 0.52368605 0.6324278 -0.10425036 0.28395784 0.36023498 0.459365 0.53769934 0.68304765 0.6306794 0.089418836 0.65153795 0.62013054 0.12681454 0.32560468 0.34006545 0.14800203 0.18087779 0.279536 0.35307884 0.2888516 0.03575556 0.12056713 0.13250867 0.19923797 0.38401306 0.16998616 0.3466541 0.10894668 0.23902631 0.29368067 0.32921752 0.28696406 0.22770414 0.17596723 0.19139843 0.26220334 0.21061026 0.2910231 0.25153878 0.73163104 0.7053113 0.20330201 0.16696335 0.062206514 0.43321332 0.7150942 0.7241077 0.6810527 0.6236306 0.20664632 0.428166 0.63104445 0.022673808 -0.068426184 0.17335826 0.2789496 0.5114027 -0.16488153 -0.31017792 0.327106 -0.02232336 0.13004293 -0.036524512 -0.019137584 0.055744044 0.52778876 0.4634598 -0.1379646 0.49187905 0.10336867 0.4326638 0.40723333 0.1265984 0.20489924 0.3291279 0.2793655 0.46583557 0.50900257 0.6226754 0.2032448 0.21248385 0.61800843 0.6258148 0.35319465 0.56279385 0.58861804 0.44271553 0.40524763 0.52983326 0.5359997 0.4404357 0.50661063 0.41917896 -0.03046966 -0.0792526 0.30218014 0.37315375 0.4182623 -0.0065122545 -0.038698524 0.018482193 0.33107936 0.010886133 0.28945518 0.33589154 0.3210562 0.25557008 -0.10268293 0.042021833 0.32563636 0.08002843 0.4621228 0.27669558 0.40711457 0.5175767 0.45460564 0.47565848 0.46624103 0.35378218 0.17188929 0.024837384 0.13993116 0.1442784 0.18829256 0.2826118 0.21095785 0.24768382 0.27363193 0.21570846 0.2724301 0.27776873 0.38653493 0.5395678 0.72057146 0.7032764 0.65944195 0.39745653 0.3126882 0.27031708 0.27693376 0.46087587 0.5840336 0.6704627 0.59679174 0.4996731 0.29679477 0.5187344 0.58869356 0.5400033 0.023632921 0.47106165 0.5010505 0.44815707 0.35589007 0.28874773 0.0005005151 0.23350249 0.53647125 0.5487905 0.5612499 0.47053546 0.50759625 0.29726857 0.42009348 0.34265167 0.36275554 0.5872852 0.28939936 0.5374173 0.5932843 0.12185572 0.12940004 0.53447324 0.5476408 0.35881585 0.17600119 -0.2254482 0.49623823 0.5195725 0.36732197 -0.0769152 -0.04045667 0.32060662 0.4088353 0.4388805 -0.014153803 0.27459854 0.3507119 0.009639437 0.38725635 0.013073891 0.014483709 0.033893675 -0.3124392 0.3197738 0.31871542 0.27142218 0.16224986 -0.20534518 0.33947408 0.18198937 0.42168418 0.006498318 0.5432141 0.45467758 0.4897442 0.4849974 0.43532065 0.269837 0.20767155 0.3632344 0.3761392 0.43230167 0.51228225 0.55174935 0.48727974 0.41159108 0.44929963 0.4941115 0.3462876 0.3629365 0.50529903 0.6290176 0.6837939 0.6588242 0.61401534 0.5181382 0.4830116 0.44490862 0.41493595 0.31831622 0.6747546 0.57333696 0.64404804 0.5580119 0.38624853 0.61571825 0.30632728 0.46393818 0.5297639 0.22522622 -0.11400087 0.44883537 0.23095533 0.33466157 0.20392449 0.016560141 0.04368466 0.27314687 0.54135764 0.5495604 0.55777866 0.3050768 0.48837692 0.5288181 0.5298188 0.4531842 0.48770463 0.1807194 0.36285177 0.39833948 0.11770588 0.23063317 -0.13244176 -0.07766834 0.49572963 0.14755204 0.1596341 0.340856