# vtk DataFile Version 2.0
Really cool data
ASCII
DATASET POLYDATA
POINTS 7564 float
30.322874 26.77353 41.761562
30.30772 26.73237 42.31767
30.308743 27.301342 41.733585
30.30884 27.457296 42.469433
30.38269 27.33604 42.90595
30.400253 27.889694 42.60007
31.412647 20.182545 51.51365
31.355566 20.779772 51.17879
31.073624 20.725002 51.855644
31.01658 20.711872 52.43313
31.159603 20.889673 53.175983
31.028397 21.343342 51.76163
30.901726 21.494347 52.55448
31.11589 21.401104 53.26413
31.08955 21.945326 51.937695
31.09749 22.065361 52.5103
31.125849 21.983524 53.087837
31.129961 26.223984 41.201225
30.852865 26.142801 41.543434
30.732662 26.112392 42.289234
30.782661 26.695427 41.102642
30.5446 26.491035 41.530624
30.484623 26.475262 42.528095
30.575562 26.91832 43.053455
31.145887 26.999043 43.72431
30.89202 27.386837 40.86407
30.472383 27.402449 41.385765
30.63726 27.583784 43.218807
31.169928 27.5613 43.772377
31.011469 27.911928 40.933384
30.838737 28.299963 41.739925
30.678883 28.25952 42.444824
30.891039 28.189405 43.16898
31.113056 28.755196 42.325573
32.40717 14.05586 41.957684
32.378418 14.015616 42.42572
32.402218 14.119817 42.87292
32.374203 14.554932 41.922253
32.30406 14.503046 42.535557
32.393364 14.417234 42.88715
32.42921 15.198031 54.062386
32.397903 15.157376 54.477234
32.403942 15.099144 42.082573
32.37121 15.074543 42.469666
32.42858 14.952128 42.862755
32.32554 15.623774 53.902985
32.293533 15.456607 54.41772
32.33183 15.634002 55.24895
32.331562 16.245497 53.795223
32.186913 16.467653 54.692223
32.205566 16.579195 55.271996
32.24885 16.731392 56.05947
32.09957 17.506441 55.202522
32.148094 17.510824 56.150322
32.45852 17.903208 57.264954
32.26314 19.203547 50.135303
32.16983 18.967886 51.49895
32.230225 18.565565 54.821827
32.14593 18.311623 55.790188
32.218475 18.65374 55.988598
32.234333 19.608154 50.006622
31.926638 19.771656 50.55906
31.852856 19.541403 51.615337
31.598091 19.767181 52.22392
31.811028 19.785707 53.059242
32.323883 19.085188 54.605576
32.418793 18.802633 55.913708
32.421364 19.0172 56.183395
32.287544 20.825329 49.90394
31.590315 20.575008 50.82811
31.516502 20.400162 53.51707
31.687742 20.871334 53.769375
32.30105 22.2423 43.884026
32.355026 22.140057 44.29858
32.318584 20.951248 50.1089
31.676758 21.32181 50.894024
31.395168 21.696692 51.355335
31.700853 21.15328 53.91171
32.280327 22.980152 43.17762
32.098972 22.680548 43.79264
32.159912 22.665657 44.564556
31.7827 21.983881 51.17049
31.577255 22.261976 51.770195
31.415482 22.391655 52.53684
31.570517 22.260492 53.324677
32.100574 22.011768 53.92265
32.246082 23.155764 42.994057
32.042225 23.347633 43.53646
31.946644 23.462784 44.364273
32.252132 23.531218 45.135036
31.919554 22.6714 52.665886
31.87105 22.645882 53.02156
32.247982 25.261 42.126507
31.999691 24.326912 43.604702
31.904428 23.976791 44.19273
32.375984 24.517616 44.902767
32.154392 26.23967 40.210323
31.244192 26.14655 41.07712
31.429632 25.682814 42.253105
32.0486 26.730902 39.953598
31.409529 26.824467 40.476616
31.803112 27.052063 43.936005
31.864824 27.436901 39.97493
31.370611 27.769146 40.42921
31.586634 27.607126 43.94962
31.989273 28.066652 40.125904
31.746483 28.269464 40.513912
31.472898 28.5001 43.52358
31.643312 28.312006 43.755054
32.034462 28.946095 40.937214
31.924973 29.111235 41.496735
31.630892 29.022858 42.69947
31.909355 28.930006 43.16374
33.123386 13.282684 41.85442
32.94672 13.335559 42.512226
32.964947 13.385707 42.908775
33.104538 13.934387 41.12248
32.740467 13.768742 41.75075
32.59541 13.6888485 42.481308
32.73459 13.856312 43.109394
33.205387 14.281633 53.892918
33.13589 14.224867 54.503654
33.07834 14.312883 54.954765
33.00935 14.5546255 41.03318
32.563446 14.511535 41.59782
32.663567 14.432271 43.282322
33.151276 14.743635 43.636997
33.33319 15.145415 52.11807
33.09691 14.919334 52.787434
32.778862 14.759534 53.782104
32.64736 14.775909 54.545048
32.791355 14.854901 55.20449
33.023853 15.216032 41.14225
32.72002 15.385091 41.63283
32.548313 15.532948 42.38916
32.705017 15.451415 43.093445
33.24736 15.384829 51.997986
32.998196 15.491029 52.513092
32.526245 15.431573 53.557022
32.47738 15.523406 55.35101
32.65499 15.70831 56.02136
33.064453 15.95043 57.529587
33.30924 15.5535345 58.81157
33.374367 15.692711 59.27275
32.862503 15.887578 41.829388
32.847736 16.016087 42.52247
33.268257 16.284412 51.682285
32.98362 16.354847 52.490723
32.522903 16.724545 53.49289
32.512867 16.410381 56.353138
32.798645 16.712152 57.38353
33.097103 16.510365 58.308002
33.30062 16.275167 59.360336
33.04858 17.17533 52.124546
32.92374 17.71259 52.568935
32.574738 17.64259 57.477116
32.955208 17.295238 58.376465
33.24512 17.323334 59.059788
32.44888 18.888628 50.56471
32.54352 18.427574 54.393112
32.644928 18.532013 57.271812
32.91799 18.361008 58.2603
33.24162 17.958712 58.93502
32.592014 19.606583 49.583225
32.616753 19.553751 54.537838
32.569283 19.126932 56.272427
33.11492 19.175488 58.136955
33.04191 20.39147 49.02693
32.67743 20.568823 49.436573
32.87582 20.583176 54.993168
33.38653 20.436827 56.609787
33.291225 20.120361 57.2461
33.370308 19.853214 58.155712
32.947525 22.116226 42.88201
32.702496 21.867706 43.704617
32.71423 21.865545 44.44019
33.24554 22.01833 45.537903
32.612118 21.149282 49.895363
32.588932 21.459154 50.376495
32.790405 21.536322 54.71576
33.169792 22.97867 41.872986
32.525562 22.651033 42.87
32.46456 22.32772 43.251656
32.604435 22.498915 45.269936
33.061398 22.979252 46.36395
33.30293 22.926727 48.143692
32.458866 22.540352 51.604362
32.201534 22.591835 53.477535
33.12173 23.53072 41.89565
32.999207 23.359684 46.45129
33.17815 23.469677 47.457577
33.183685 23.927734 48.792103
33.433346 23.811329 50.401024
33.435974 23.368914 51.286263
32.513226 22.678598 52.56327
32.46315 24.61869 45.13054
33.156803 24.099426 47.758213
33.240814 24.12936 49.098263
32.61804 26.183142 40.066883
32.859806 25.889719 40.606625
32.87884 25.046534 45.617893
33.16647 25.242582 46.10656
33.34289 25.075672 47.514305
32.89057 26.973652 39.44985
32.504993 26.77721 39.690384
33.113758 25.773035 44.724922
32.774914 27.157938 39.476696
32.48717 27.392866 39.611042
32.61821 28.193323 39.886288
32.552124 28.078197 44.102814
33.069073 28.764042 40.120026
32.62541 29.156689 40.78161
32.425755 29.435362 41.518097
32.422287 29.520014 42.517597
32.725777 29.278824 43.329617
33.09949 29.1593 43.694645
33.12787 29.767113 41.100025
33.03253 29.844965 41.65354
33.019066 29.827566 42.487812
33.47029 30.362583 53.77936
33.920467 13.140291 40.731556
33.80234 12.845083 41.49367
33.544468 13.02761 42.449993
33.76283 13.243534 43.094173
34.32598 13.193729 44.76034
34.393143 13.063309 45.673306
34.4265 12.957327 46.79199
34.0448 13.890327 40.377728
33.7536 13.540399 40.69727
33.930866 13.575327 43.438816
34.2909 13.731275 45.593494
34.333973 13.498875 46.36378
33.607147 14.035464 53.781837
33.5997 13.935366 54.47842
33.77235 13.974159 55.25314
33.931767 14.267124 55.938755
34.094154 14.361433 40.21439
33.49802 14.471026 40.669327
34.14004 14.425779 44.344177
34.271744 13.986512 45.69931
34.393818 14.223752 46.448036
33.614525 14.943282 51.92275
33.65241 14.5754175 52.523613
33.467075 14.871654 56.436626
33.872578 14.87744 57.581993
33.718586 14.921264 58.633232
33.900974 14.837301 59.37778
34.050335 15.113056 60.012444
34.301003 15.5730095 40.10782
33.745483 15.566291 40.67598
33.44262 15.438804 43.759827
34.413864 15.024288 45.21244
33.676495 15.569614 51.33142
33.51905 15.6276 57.763916
33.58408 15.4292345 59.631012
33.860813 15.660877 60.04981
33.9026 16.150084 40.956966
33.902443 16.478363 41.478283
33.449688 16.478386 42.539314
33.47877 16.211832 43.175312
33.82576 16.47145 51.01528
33.433952 16.659956 51.51306
33.505085 16.389006 59.61727
34.085224 16.280935 60.217228
33.846558 16.574274 41.78433
33.670517 16.654514 42.200512
33.8691 18.145597 49.76923
33.640816 17.087828 51.34
33.657993 17.301151 59.442684
34.060123 17.33443 59.86685
34.131794 18.9375 49.084076
33.538395 18.485548 49.84027
33.39749 18.448174 58.91565
34.198635 19.898369 47.620647
33.47476 19.204678 58.674202
33.766945 19.371176 58.91397
33.956463 21.36207 42.970097
34.011887 20.255766 47.269073
33.707428 20.808464 48.82663
33.50735 20.660995 56.47143
33.824852 20.555773 58.456623
34.071175 20.566298 58.992073
33.531597 22.151417 42.13729
33.63571 21.75868 42.62371
33.6286 21.520247 43.203793
33.24278 21.49843 44.59031
33.482517 21.843908 45.368324
34.02512 21.445753 56.924625
33.9118 21.068878 57.65449
34.048542 21.10454 58.34604
34.246613 21.014523 59.01486
33.959496 22.805553 41.351868
33.679176 22.777231 41.54176
33.49344 22.539013 46.53059
34.352524 21.79246 57.42733
33.660892 23.550774 41.278667
33.453857 23.355614 41.528008
33.65276 23.654629 51.97988
33.592564 23.818277 52.77408
33.490215 24.770742 49.26534
33.810722 24.223568 50.511177
33.872143 24.647013 52.940536
33.825676 24.84302 54.21044
34.332787 24.05437 55.249046
33.54613 26.039774 40.07997
33.428383 25.549223 46.509094
33.604004 25.408415 46.91549
33.767082 25.65359 48.250072
34.46575 25.990746 50.530693
34.214737 25.20075 51.351048
34.13598 25.528458 53.345592
34.161232 25.466238 54.42471
34.237293 25.256386 55.128674
33.141556 27.035606 39.449223
33.343044 26.809082 39.610622
34.184772 26.61993 47.584465
34.03847 26.415522 49.80177
34.45723 26.535322 51.951054
34.35438 26.016846 53.249207
33.06972 27.198788 39.435024
33.389866 27.432318 39.551834
34.40962 27.325914 48.0536
34.159424 27.33209 48.420113
34.05181 27.44512 49.328453
34.17243 27.66486 50.297325
34.2669 27.40094 51.347485
34.42606 27.476477 51.874836
33.184975 28.262714 39.81133
33.872112 28.365633 44.338715
34.228283 28.332733 49.291027
34.128128 28.046545 50.271107
34.201984 28.198435 51.58827
34.369625 28.591291 52.428486
34.110054 29.182287 54.774677
33.54899 29.096882 40.358505
33.485504 29.462967 40.622295
33.941525 29.221088 43.97654
34.445797 29.099308 52.06901
33.736164 29.879519 53.202988
33.667828 29.820488 53.672897
33.753567 29.714874 54.327892
[...]
POINT_DATA 7564
SCALARS features_00 float 1
LOOKUP_TABLE default
0.80048203 0.81035197 0.82969356 0.84136987 0.82447726 0.8283813 0.55481744 0.56851804 0.6678723 0.7140031 0.69032073 0.69588125 0.76642555 0.7329582 0.6995493 0.7212667 0.73512435 0.68604547 0.70957625 0.7203982 0.7508067 0.76410866 0.7802534 0.7991628 0.70819044 0.7684928 0.8178159 0.7923525 0.7201313 0.7808007 0.82616603 0.81329083 0.76236045 0.7487658 0.7541996 0.7445282 0.72161955 0.7541854 0.7450165 0.72389543 0.44638756 0.4423961 0.7505711 0.7445409 0.7258935 0.43063724 0.4339251 0.39910835 0.40096185 0.3815906 0.35675967 0.32251793 0.3103876 0.31444198 0.32384425 0.38557014 0.30119762 0.19633779 0.25828856 0.24277118 0.4087897 0.4470132 0.4543875 0.542784 0.4259147 0.12578055 0.22366565 0.22067748 0.4246859 0.51001316 0.50176823 0.5250086 0.5224065 0.5171839 0.43856925 0.5442134 0.622563 0.5595554 0.5046663 0.51982486 0.5070489 0.5480938 0.6082973 0.65486705 0.68364084 0.6184389 0.48625314 0.49625307 0.50619644 0.47397465 0.55288255 0.5878941 0.38405684 0.40365636 0.47592884 0.36993605 0.5867821 0.6680665 0.5937687 0.6278323 0.7004448 0.58190095 0.66614795 0.7213578 0.66128254 0.65621686 0.68171585 0.67871493 0.6547265 0.618443 0.62615526 0.66199815 0.6206503 0.745451 0.7000333 0.66295063 0.7420948 0.7601794 0.7304014 0.6811966 0.45834336 0.44519508 0.42772323 0.72829974 0.75638354 0.68332994 0.6225916 0.39250457 0.42937574 0.4564697 0.44790334 0.41897458 0.7165847 0.7432292 0.7473027 0.7123308 0.38046587 0.3935206 0.43395674 0.39670742 0.33775234 0.31162298 0.43110842 0.4520932 0.7315277 0.73634 0.3382666 0.35031578 0.3638234 0.30734286 0.3118643 0.36933982 0.42805743 0.25849697 0.18111993 0.32860297 0.34314692 0.36040998 0.3105163 0.20377383 0.2972384 0.29642862 0.3186853 0.368372 0.08706604 0.21559224 0.2812208 0.3181381 0.36819416 0.048938356 0.18509853 0.2529276 0.29288894 0.52638113 0.5209433 0.50939775 0.4075779 0.39439124 0.41216952 0.2644567 0.49452537 0.5127204 0.52202165 0.46189824 0.32332495 0.07342649 0.40355444 0.5494518 0.43044528 0.29824623 0.18195704 0.12579438 -0.13191733 -0.079161815 0.41849473 0.3260993 0.18665305 0.07823039 0.52441037 0.47356457 0.19587198 0.14241618 0.084617734 0.5530807 0.5786438 0.0711671 0.57381296 0.6064142 0.60450935 0.519591 0.56250256 0.5589076 0.56320906 0.56747544 0.5221356 0.48308712 0.51008123 0.51525867 0.5210979 0.6728734 0.6652538 0.7022067 0.65320504 0.54191506 0.34580842 0.4630903 0.5113838 0.6224861 0.67343736 0.5016439 0.43671966 0.49897784 0.4473609 0.42656228 0.36820114 0.29372287 0.5939967 0.66490084 0.37123036 0.42959422 0.46643966 0.38861206 0.41011354 0.29037327 0.28657436 0.41505063 0.46391523 0.49002647 0.56051403 0.61647224 0.5695739 0.29258195 0.3486151 0.33624864 0.47541714 0.47478092 0.5840592 0.5757291 0.6504327 0.63192284 0.2724574 0.30260423 0.42930946 0.4301446 0.5783933 0.59809744 0.013536498 0.22754839 0.37154907 0.35846508 0.10546725 0.103578806 0.29547143 0.10107008 0.28733096 0.29075435 0.54022264 0.0747951 0.21809843 0.16550143 0.33937597 0.36106086 0.52780044 0.5407797 0.5329149 0.46285403 0.373909 0.26432693 0.31782073 0.35589743 0.37490278 0.48838744 0.5007906 0.2684203 0.32390183 0.41750383 0.45700765 -0.110280275 -0.056081332 0.010852994 -0.14667922 -0.016752206 0.20333505 0.33100724 0.42183197 0.051720724 0.040179916 0.006342273 0.0042245146 -0.11048664 0.046168804 0.21619037 0.30664706 0.53126144 0.49331486 -0.0274686 0.069009036 -0.010938901 0.0069930777 0.5471195 0.52598894 0.07910275 0.1110263 0.15958497 0.13822113 0.08206325 0.067227155 0.5706141 0.31094337 0.18296805 0.14702865 0.09107205 0.15945992 0.5483461 0.5168566 0.50420463 0.387726 0.19473201 0.53067255 0.5935291 0.6378222 0.6084225 0.47975457 0.46772206 0.48293257 0.43174 0.60911286 0.6698521 0.70908815 0.6695579 0.69958794 0.7276805 0.73813224 0.7058078 0.56371844 0.58039737 0.4033729 0.43751013 0.4488449 0.43356124 0.59323686 0.61274946 0.6265837 0.53549737 0.48273262 0.31362176 0.42982125 0.49807793 0.49455065 0.46486747 0.5952897 0.629914 0.5056858 0.47243997 0.30142814 0.3685129 0.32164243 0.31101805 0.1737115 0.18598083 0.35731637 0.41037786 0.42244688 0.55541384 0.43667495 0.4590332 0.35138944 0.437579 0.47756922 0.50295013 0.5405529 0.30426723 0.36798644 0.38233763 0.3251804 0.48097366 0.48413306 0.52210784 0.5232128 0.2645817 0.15306343 0.10000774 0.2391273 0.4574072 0.4554735 0.31543353 0.3432333 0.0090741515 0.011059314 0.26220578 0.011137992 0.028636977 0.52727103 -0.012280457 0.005052071 0.369969 0.33128953 0.51675206 0.37524763 0.37792718 0.46692824 0.47650814 0.33064502 0.36608052 0.36125037 0.4233915 0.33878368 0.3843754 0.28534377 0.29441032 0.3212917 0.34549484 0.40365812 0.22890462 0.24921814 0.4283781 -0.112600684 0.0028288811 0.079717726 0.49053782 -0.18884619 0.10146108 0.16579014 0.11045158 0.40773618 0.39477643 0.47620565 0.4491808 0.19460844 0.15172455 0.14443476 0.11245968 0.2735033 0.52771765 0.43470496 0.4227634 0.42111942 0.37175584 0.28227413 0.25410795 0.39302748 0.6049925 0.30661076 0.6820115 0.72755563 0.66103727 0.67772746 0.7114808 0.7050209 0.5372132 0.44682747 0.24215825 0.3791446 0.40180713 0.3287651 0.15180829 0.55836016 0.5218538 0.40616494 0.24234046 0.37072462 0.14075236 0.09759046 0.124149926 0.10377103 0.34028053 0.50554156 0.008845687 0.04161837 0.019503444 0.11026302 0.2750337 0.37274963 0.42267147 0.47709537 0.4489928 0.3881765 0.32772976 0.54584813 0.60485756 0.48018888 0.49418542 0.2874379 0.12996392 0.5449666 0.5771869 0.49955794 0.0767378 0.117833644 0.44116697 0.5179788 0.43517968 0.3983854 0.2862714 0.16667476 0.2671553 0.02716174 0.013275459 0.24890313 0.3660359 0.00881093 0.05616345 0.05912923 0.2000167 0.3496689 0.42748138 0.48415068 0.34788638 0.34655994 0.35144106 0.30814844 0.34799743 0.34185886 0.20949382 0.2553025 0.28920445 0.27882072 0.24333559 0.24293707 0.2526317 0.26556522 0.17801744 0.27479243 0.051959656 0.06519779 0.29333696 0.24430797 0.122636884 0.34654257 0.33567116 0.27025834 0.2555305 0.078023136 0.15241602 0.21903384 0.19406569 0.07149047 0.45568788 0.20734723 0.2006922 0.3235161 0.33297428 0.30403906 0.2526617 0.5653994 0.5357029 0.60202765 0.66892934 0.6848361 0.6572213 0.60382 0.6659919 0.67537016 0.6680588 0.29700208 0.31386566 0.3110776 0.17224734 0.24100687 0.2780164 0.2666533 0.25954646 0.19672735 0.17118132 -0.004899595 0.075460166 0.1934945 0.17761356 0.19064952 0.1763928 0.18201646 0.1721384 0.39832854 0.24769688 -0.04490702 0.13702434 0.11622 0.09357258 0.07734807 0.26833192 0.33336636 0.38503182 0.36613584 0.42764342 0.51150435 0.35013148 -0.16066603 0.5829961 0.6293635 0.65223277 0.66721886 0.67920685 0.36767614 -0.17097507 0.6362838 0.6960535 0.7311192 0.7200992 0.52748454 0.73762083 0.74983454 0.72268355 0.2503688 0.22613662 0.14048822 0.011688314 0.21423009 0.3678661 0.16395086 0.16784681 0.03656025 0.024975516 0.08554213 0.14323434 -0.03293774 0.25844657 0.28345203 0.31752628 0.24455705 0.22724268 0.26038173 0.13534263 0.14939675 0.24829207 0.17230704 0.22365847 0.0724669 0.21156329 0.18556422 0.22698833 0.34705606 0.2853188 0.4058417 0.29098454 0.40688452 0.4157529 0.18627626 0.21043645 -0.06519127 -0.013331113 0.041276574 0.1118182 0.34393096 0.25036573 0.2691241 0.4809373 0.4174009 0.34231073 0.38017952 0.36642718 0.6396881 0.62654865 0.5542886 0.64237547 0.65613365 0.6488067 0.725647 0.7292886 0.638889 0.661164 0.70812005 0.5826627 0.6912942 0.7912582 0.74595594 0.50675046 0.672288 0.77496237 0.87061054 0.78202426 0.6952907 0.7991591 0.92527425 0.873194 0.2270715 0.25682926 0.29692966 0.32206252 0.29954898 0.1597585 0.7690555 0.86122644 0.11779695 0.19316319 0.16528767 0.1294998 -0.058975194 0.17448728 0.16687013 0.08358809 0.23651294 0.057066664 0.06227286 0.0031593144 0.066517554 0.09402359 0.11425805 0.43528226 0.48727423 0.44144055 0.22676061 0.46407855 0.52430695 0.60128486 0.5070543 0.52029335 0.52073765 0.44076407 0.65318906 0.55259013 0.59076357 0.6071501 0.5982251 0.48361397 0.23038591 0.65127784 0.6060848 0.6652671 0.63553226 0.5162876 0.58029497 0.7026381 0.7075578 0.6154678 0.62349886 0.31732652 0.36439556 0.6925907 0.6692797 0.53227127 0.50668347 0.013797853 0.011540066 0.025385104 0.15943377 -0.3180075 -0.3408709 0.6723663 0.67299575 0.6708926 -0.29536164 0.6950087 0.7079904 -0.21453626 -0.28957915 0.12014553 0.1806961 0.1921256 0.114975885 -0.16390324 -0.09858368 0.21753019 0.20541576 0.15755847 -0.09128986 0.19978751 0.08376789 0.22199206 0.07800867 0.4488486 0.48438674 0.15795828 0.44323996 0.50031424 0.12340423 0.43155968 0.19011559 0.017100727 0.1350179 0.43118197 0.4093511 0.51298475 0.3848021 -0.0034792647 0.11545269 -0.0018905252 0.32463935 0.2786108 0.24827686 0.5368115 0.598428 0.5708864 0.3491251 0.55403495 0.5279366 0.5374033 0.62322235 0.6414273 0.70897675 0.72008646 0.6844708 0.75481844 0.8156071 0.8073214 0.79310715 0.8457061 0.85713255 0.85769224 0.8872274 0.89987004 0.833295 0.8858688 0.8913666 0.792035 0.8031111 0.78544164 0.3335985 0.3015114 0.70786214 0.7144178 0.68484724 0.31584626 0.3143506 0.6891163 0.7354723 0.716246 0.6320714 0.5753993 0.30009916 0.31637377 0.3346874 0.29641825 0.6692168 0.675214 0.64482284 0.56959045 0.29233292 0.30114034 0.32149506 0.2537217 0.60343504 0.5806949 0.5390427 0.50228375 0.22331372 0.27733046 0.3024459 0.40407982 0.61066675 0.19182104 0.29763564 0.4209994 0.6843482 0.60959435 0.23763299 0.2910438 0.7181633 0.6627966 0.22436023 0.28266624 0.3033957 0.5000943 0.55423915 0.7793094 0.6696433 0.14482853 0.20104958 0.25020602 0.2876913 0.23617384 0.15941536 0.61235434 0.69129634 0.83371997 0.052870315 -0.02620224 0.06873538 0.08519638 0.026733063 0.040678322 0.0405941 -0.08949233 -0.23219916 -0.19899593 0.06917275 0.108623385 0.040189333 0.11574712 0.11422261 0.13034667 0.29492074 0.39381316 0.48141307 0.39734888 0.34456074 0.3215223 -0.26719582 0.03889416 0.5524985 0.6094347 0.42774427 0.4638945 0.071679324 0.626808 0.51037633 0.2857409 0.5728927 0.5866449 0.23852487 0.435177 0.6454667 0.4863662 0.66753703 0.2836306 0.042809714 -0.018101893 0.54624975 0.6128077 0.59428155 -0.1466082 0.5927918 0.63594633 0.6551405 0.6427115 0.59635377 -0.42740947 0.66825294 0.69853556 0.7383964 0.69292414 -0.35844594 0.48111916 0.61512136 0.7708841 0.78899854 0.75428486 0.04572065 0.5687338 0.6367706 0.6619778 0.8041899 0.7946193 -0.049170084 -0.12408385 -0.07911822 0.5628087 0.6402093 0.6636447 0.066685244 -0.0454975 0.42941433 0.6346383 0.02604496 -0.21627693 -0.11040331 0.10636151 0.23918644 -0.10489563 0.42780286 -0.03866858 0.52451426 0.5075502 0.4851269 0.35571712 0.44678763 0.47654176 0.6078577 0.0090653505 0.22464222 0.40563518 0.38861006 0.65585995 0.65102756 0.56149554 0.11514369 0.22732809 0.15821232 0.16782035 0.10102751 0.37254205 0.39425293 0.41089493 0.6551743 0.6049913 0.41462517 0.13557982 0.44138345 0.43813998 0.605908 0.76862913 0.76716316 0.8563653 0.8566331 0.8054346 0.76397395 0.82735044 0.8554808 0.68079776 0.7768232 0.8571945 0.8884557 0.62270176 0.8593061 0.80010545 0.3561713 0.32102972 0.39022848 0.6804303 0.7290751 0.7738039 0.38150275 0.37585807 0.35460517 0.29940712 0.28896588 0.5202584 0.66687363 0.62330985 0.6739547 0.694977 0.69523823 0.6516562 0.3645775 0.36005315 0.2821857 0.22364528 0.30486396 0.6288264 0.66787934 0.6969745 0.698905 0.6258773 0.48162094 0.31044918 0.3210774 0.24664341 0.63027877 0.67085147 0.4803533 0.40717706 0.26499668 0.19263281 0.60653996 0.6404351 0.47495872 0.37886962 0.21765317 0.22939038 0.6120428 0.59642804 0.48119217 0.46321732 0.39887732 0.35769624 0.21396542 0.48502338 0.5114566 0.4843138 0.4544661 0.40340412 0.045059014 0.13214844 0.5344319 0.018161062 0.5042062 0.1347036 0.11370025 0.10426547 0.18468986 -0.41981098 0.03606659 0.60730875 0.084978215 0.10888929 -0.08567985 -0.19413412 0.31322125 0.54322475 0.5933894 0.20511113 0.09414472 -0.018391158 -0.14426348 -0.06549063 -0.18016946 -0.12317158 0.11987099 0.041157413 -0.057821576 -0.013265632 -0.19118254 0.020953037 0.048505038 0.0960297 0.22537991 0.1552372 0.020152032 -0.12246777 -0.08432878 0.05825033 0.33350432 0.00026272237 -0.15084675 0.36965585 0.5713331 0.31623483 0.5941862 0.24791923 0.49350044 0.26750478 0.2212399 0.5710702 -0.006316874 0.3213141 0.39771956 0.32550085 -0.07927162 0.41988707 0.48179334 0.2831479 0.044253305 0.1864804 0.23375577 0.10135552 0.1384625 0.16966419 0.4355781 0.50975186 0.5565096 0.3775905 0.29017273 0.22765934 0.22216246 -0.29342306 0.16685015 0.5868325 0.43573314 0.42227012 0.3634023 -0.326841 0.52369905 0.6033322 0.662114 0.7420224 0.7460139 0.6768675 0.41092992 0.37815478 -0.20839128 0.6735623 0.6886908 0.76585305 0.80731833 0.797081 0.6553886 0.6747228 0.7751212 0.027081005 0.06284405 0.13421313 0.50181484 0.6150015 0.6501052 -0.19842938 -0.15065531 0.1103413 0.15029374 -0.19098748 0.21334389 0.41091883 0.0045724288 0.49765006 0.32806903 0.26746327 0.46961027 0.47280073 0.24470404 0.2930223 0.36160228 0.44578722 0.618925 -0.0746204 0.06487859 0.032659005 -0.03398824 0.08787504 0.25184762 0.3165036 0.32867414 0.34302902 0.64745575 0.10939953 0.091703326 0.63398695 0.6467111 0.4050818 0.60980743 0.60688615 0.4708017 0.31968427 0.4224918 0.677644 0.671988 0.6208011 0.69594455 0.8213307 0.7808917 0.71417916 0.5411896 0.6249839 0.73631585 0.8212832 0.48617172 0.79352456 0.774453 0.17268732 0.23558807 0.7757224 0.30512065 0.31751952 0.26675615 0.6550996 0.5859432 0.35334575 0.3715148 0.42485365 0.33662364 0.65045476 0.6634127 0.67923844 0.6146369 0.51453686 0.43457323 0.32352084 0.19959089 0.5938165 0.61416423 0.47322214 0.3986253 0.28170845 0.27438217 0.06109281 0.56985533 0.36468914 0.24593973 0.2668509 0.24159265 0.22542438 0.1807835 0.06607757 0.5018674 0.5598626 0.34806767 0.25840276 0.2257624 0.22053806 0.15918848 0.073636115 0.5664887 0.268484 0.085091546 0.19548127 0.20614456 0.09596429 -0.13542962 0.21802856 0.3667186 0.38526386 0.30503395 0.24878395 0.16104391 0.06280188 0.17635992 -0.24129766 0.32275796 0.36426008 0.3519454 0.29984644 0.17015246 -0.019585103 0.19499996 -0.21494415 -0.14459322 -0.13352112 0.3724404 0.2720641 0.19374803 0.12731858 0.031405956 0.07761599 0.060210202 -0.2037016 -0.29979122 0.34399375 0.015870325 -0.07022698 -0.02919536 -0.09219019 0.00032196194 0.072862715 0.11728422 0.1349933 0.1291826 0.047379732 -0.09557313 -0.05478283 -0.05635756 -0.51452464 -0.14515355 0.2208504 -0.28999674 -0.13938703 -0.041105647 0.0034258263 0.15900266 -0.063452564 0.094889574 0.17815226 -0.09513892 0.061666913 -0.17910728 -0.04409413 -0.046230655 0.1820275 0.059505194 0.0101392735 0.2422584 0.111723945 0.3269417 0.33271843 -0.30168194 -0.09377654 0.16311446 0.16998333 0.4064089 0.18140784 0.44669425 0.51405716 0.32592404 0.4197134 -0.23609716 0.5433463 0.5977284 0.64002615 0.28123495 0.3774683 0.35683435 0.29229635 0.118324876 0.65448415 0.6333759 0.6505307 0.7178405 0.7900231 0.6627987 0.673109 0.7435738 0.7779077 0.80079114 -0.2255573 0.58441037 0.6160498 -0.27348733 0.059245586 0.1759966 0.28197184 0.3554596 0.11068407 -0.022085108 -0.045122676 0.112176955 0.3164362 0.31783187 0.41570693 0.26017648 0.24308297 0.5879531 -0.059246693 -0.10953897 0.3012712 0.60143054 -0.058381543 0.59861004 0.579881 0.242223 0.56962687 0.5170084 0.3713499 0.18992415 0.45322144 0.29238528 0.5233133 0.47242206 0.5925805 0.66603804 0.6284353 0.42766485 0.515574 0.0961452 0.6231399 0.16813749 0.14384873 0.018424585 0.6467576 0.23772816 0.26640034 0.24085973 0.518245 0.24262339 0.2145572 0.5131072 0.49042314 0.5718073 0.51327527 0.35578388 0.24776411 0.27327615 0.22818322 -0.0040190294 0.060324095 0.46722257 0.45403033 0.4204205 0.19764175 0.15258124 0.155114 0.2813743 -0.011103421 -0.03438468 0.46631286 0.40875226 0.20258164 0.043115404 0.074371114 0.38741475 0.38044643 0.26908875 0.22350657 0.15475756 -0.19472992 0.03894853 0.36443192 0.36347932 0.16405353 0.039015695 0.03623414 0.08929023 0.30543023 0.3308891 -0.110981315 -0.008852467 -0.04472196 0.2627767 0.24130186 -0.06809121 -0.09840359 -0.08641116 -0.06304466 -0.28347692 -0.11248469 0.16548425 0.12079023 -0.28329316 -0.2188731 -0.21545938 0.11847854 -0.18972911 -0.23610198 0.063682325 -0.15196544 0.16901553 0.3138962 -0.11018282 0.40333587 0.45667917 -0.2364109 0.42888314 -0.08192691 -0.1705018 -0.33591694 0.2002688 0.17787674 0.15757814 0.081277706 0.0012528524 -0.11947969 -0.010171948 -0.010111896 0.16100223 0.12850235 0.09031418 -0.0028800964 0.00871345 0.28218743 0.23223478 0.13234195 0.064125285 0.3372274 0.17852655 0.15720154 0.3060538 -0.024198266 -0.2897081 0.06258731 0.5094735 0.33715802 0.16028967 0.2198191 0.27445707 -0.09742229 0.5773858 0.608248 0.63088894 0.743772 0.14891213 -0.041062072 -0.21232566 0.56281775 0.719282 0.74926084 0.7878771 -0.27933517 0.41081804 0.5327575 0.3602749 -0.3715586 0.20715362 -0.25783926 -0.35582876 0.058734484 0.10984252 0.17947894 0.06619418 0.17462263 0.43382227 -0.17020231 -0.020264864 0.4843644 -0.2719254 -0.16139135 -0.19508646 -0.11505942 0.5175309 -0.32508916 -0.4073289 0.4971072 -0.024996575 0.4206372 0.17051496 0.0752335 0.31661916 0.32213628 0.38558024 0.46967572 0.39780027 0.17541987 0.16895194 0.34268194 0.44831613 0.47952747 0.04670696 0.21688229 -0.010262235 0.09670478 0.12562294 0.16909316 0.17101954 -0.031691965 0.0152389705 0.15383697 -0.0671739 0.28937128 0.2987287 0.3992976 0.45842654 0.106224716 0.19262955 0.22285587 0.020809025 0.007400747 0.10808927 0.11245935 0.0039341277 0.17048529 0.047614593 0.2485908 0.10599068 0.084205516 0.3578693 0.37706724 0.089751154 0.3136443 -0.038261052 0.15665177 0.19880487 0.17315967 0.012519032 -0.03233551 0.22656402 -0.13354446 -0.073051706 0.07024869 0.12568839 -0.063380644 -0.059779335 0.08658812 -0.10726412 -0.07306351 0.028301725 0.04832307 -0.08378756 0.12693289 0.29359403 0.37230223 0.5186298 0.5038209 0.44565096 -0.17031775 0.43856823 0.42034686 0.47962004 0.47746524 0.4467169 0.22805999 0.034744896 -0.3811152 0.38949046 0.38499472 0.36665517 0.2897234 -0.072742224 -0.3185889 0.27428102 0.2198078 0.20136823 0.08906268 0.16584697 0.34242293 0.28524244 0.011512782 0.3915069 0.33872753 0.0090344995 0.41400918 0.37183562 0.11854999 0.39386657 0.37831038 0.16933228 0.049481694 0.30572295 -0.02428116 0.08859285 0.40263027 -0.17631012 0.0074158832 0.492017 0.6940713 0.020641103 0.013177106 -0.2969136 0.36262178 -0.33782753 0.3203294 0.33153513 0.17953712 0.16844895 -0.41088295 0.15917403 0.18788244 0.47005504 0.4729303 0.38222003 0.32394856 0.16437845 -0.19828428 -0.40249932 -0.53307205 0.4075365 0.45043284 0.49255633 0.47762382 0.43914396 0.3744725 0.19383164 -0.20921877 -0.30839238 -0.3274732 0.1845791 0.16006358 0.3876758 0.40102416 0.42139298 0.39979506 0.33182988 0.3551715 0.31072113 0.24143459 0.24307962 0.356876 0.3304702 0.2871031 0.2696419 0.07786234 0.2530722 -0.0845177 -0.15893896 -0.34857923 -0.11149092 0.1601714 0.117166914 0.22269787 -0.03667109 -0.078621306 -0.23732227 0.23656614 0.24994177 0.3432201 -0.22888117 -0.14875464 -0.025341403 0.0033916794 0.35133857 0.18844756 -0.09087229 0.07663848 0.24845803 0.030281864 -0.006610185 0.052135393 0.34198844 0.35352278 0.34793067 0.39539096 0.47497058 0.3136586 0.36184445 0.26968703 0.31498703 0.079861045 0.2775411 0.18490946 0.05135142 0.24855639 0.40979862 0.14144343 0.11662152 -0.02000413 -0.0012313277 0.3660857 0.42230314 0.12121156 0.061331756 0.03231723 0.032036126 0.33315873 0.06454061 -0.03755118 -0.06316666 0.15246078 0.23593318 0.3049209 -0.068027005 0.07713843 0.022019323 0.09369904 0.06502792 0.18494155 0.10087379 0.09815775 0.028129939 0.02397598 0.0621199 0.017288268 0.046476886 0.051180672 0.050780006 0.18596621 0.089266166 0.027759328 0.30518603 0.062028382 0.023896426 0.20701762 0.26253796 0.12637654 0.29492116 0.040740088 0.10134583 -0.036105666 0.094231 -0.107275695 -0.002641231 -0.16183072 -0.058262676 0.47848034 0.40921855 0.13832629 -0.22575708 -0.2672511 0.1384352 0.28205913 0.38385737 0.51520586 0.4978001 0.41773736 -0.12799333 -0.34815252 0.41385496 0.38617018 0.48330426 0.48633975 0.363406 0.36923996 0.36201474 0.27766773 0.22401635 0.13720807 0.3415966 0.25285205 0.04844