# vtk DataFile Version 2.0
Really cool data
ASCII
DATASET POLYDATA
POINTS 7670 float
-7.7438974 30.16145 3.1773696
-7.973786 30.071432 3.6589687
-7.931719 29.973438 4.3896813
-7.8348136 30.122368 5.0582557
-7.932842 30.574266 3.165216
-8.244682 30.620747 3.6702054
-8.32189 30.619658 4.346255
-8.075542 30.574518 5.0935106
-7.7715797 30.928825 5.827189
-7.877871 31.148241 3.1670203
-8.182342 31.23889 3.7077432
-8.242697 31.342228 4.3848624
-7.9359202 31.341204 5.378344
-7.607522 31.47296 6.141781
-7.840801 31.760887 3.76637
-7.910094 31.844162 4.3528676
-7.683628 31.899214 5.162957
-7.5716276 40.02457 9.080102
-7.5944505 39.78273 9.5278
-7.584237 39.857777 10.251404
-7.6169305 40.758564 9.142175
-7.641906 40.423615 9.430805
-7.6229434 40.40975 10.412098
-7.5318537 40.41326 10.938241
-7.5977693 41.033962 9.589656
-7.5427685 41.055542 10.453347
-7.5437617 44.97382 2.9954069
-7.572345 45.003498 3.469056
-7.5744486 45.355843 2.8955362
-7.6043105 45.471104 3.4021566
-7.5716004 45.54054 3.882324
-7.5532937 45.92306 2.8300047
-7.5642123 45.949368 3.4629283
-7.8273478 48.90925 -1.2422371
-7.9366236 48.951073 -0.630822
-7.6847777 49.44074 -1.8794729
-7.8945365 49.47675 -1.3756046
-7.959668 49.464153 -0.7476312
-7.841324 49.48317 0.3134056
-7.610515 49.31753 1.0662282
-7.7950873 50.270184 -1.3835403
-7.6958294 50.662094 -0.6045033
-7.69661 50.32252 0.20566162
-7.6013155 50.97826 -0.31913722
-7.3604507 30.006786 3.0187242
-7.3633 29.684462 3.5409143
-7.5221033 29.699514 4.550776
-7.415888 29.928652 5.2336516
-7.0271783 30.170637 6.0908685
-7.430691 30.500818 2.816619
-7.6217966 30.27853 5.514737
-7.3330064 30.567759 6.2425923
-7.126996 30.995598 6.774203
-7.4426274 31.275705 2.9359787
-7.4374924 31.490156 6.435198
-6.980457 31.481503 6.9293594
-7.4269156 31.71562 3.248226
-7.440203 31.961721 3.587585
-7.2749496 32.346905 4.442141
-7.296024 32.293423 5.569727
-7.069565 32.145233 6.5135527
-6.9292774 32.025726 6.772184
-6.803854 32.592762 4.8370547
-6.8778563 32.653225 5.42886
-6.8607965 32.578796 5.9437885
-6.8825874 38.940327 8.97236
-7.0366416 38.87308 9.572678
-7.1009645 39.009857 10.291602
-6.9140887 39.245502 11.08328
-6.697702 39.572887 8.271438
-7.2379107 39.726196 8.802865
-7.409693 39.39743 9.474407
-7.4000864 39.60622 10.541296
-7.11624 39.684864 11.248702
-6.904337 39.90634 11.855652
-6.8480277 40.29225 8.194969
-7.3604984 40.477642 8.806211
-7.4354587 40.496803 10.868263
-7.321724 40.519516 11.43531
-7.004006 40.50592 12.034176
-7.386736 41.237312 9.090167
-7.4427533 41.320408 9.64406
-7.374455 41.34475 10.371023
-7.13413 41.197197 11.461129
-6.9106927 41.053085 12.000827
-6.8804913 41.80446 8.876948
-7.0537004 41.842915 9.682161
-6.9669485 41.823708 10.30908
-7.05204 41.652782 10.902795
-6.9990754 44.30237 2.6968827
-6.9758983 44.196697 3.3068414
-6.8614035 44.851894 2.1399612
-7.29941 44.670124 2.8028896
-7.4461203 44.827824 3.426511
-7.14035 44.83103 4.1654234
-7.066277 45.410007 2.1761463
-7.4538527 45.663616 2.630521
-7.3837748 45.471725 4.110116
-6.9772882 45.66842 4.7111387
-7.122804 45.992 2.3081913
-7.311266 46.35015 2.8424017
-7.423846 46.270226 3.4772868
-7.1775017 46.421375 4.2601337
-6.7888727 46.277184 4.9255877
-6.835058 48.21524 -2.0146425
-6.750857 48.178677 -1.7393384
-7.4337177 48.302536 -0.9111044
-6.6606994 47.244396 1.9124018
-6.843257 47.858997 3.0373988
-6.812174 47.94786 4.767526
-7.377833 48.901863 -2.0189967
-7.5696373 48.688343 -1.5144477
-7.521388 48.62146 0.19932792
-7.3748813 48.773518 1.3124533
-6.8618298 48.000053 3.8839004
-6.814133 48.58309 4.308784
-6.61473 48.68955 4.99574
-6.711568 49.482044 -2.8191032
-6.9062395 49.80508 -2.61236
-7.186149 49.713917 2.2033968
-7.0573626 49.87799 3.1628199
-6.779503 49.50288 4.265566
-7.449161 50.313923 -1.9483128
-7.2528596 50.392124 2.1967616
-6.9652634 50.61914 3.4259713
-6.740668 50.565235 3.9961615
-6.9011126 51.08942 -2.1687427
-7.100449 51.33547 -1.4750541
-7.364426 51.25763 -0.7137959
-7.3942256 50.933876 0.15315804
-7.083508 51.176872 1.3836373
-6.797818 51.598873 2.5245728
-6.790491 51.24207 3.5213223
-6.698812 50.94796 3.97511
-6.537886 29.37793 3.6769114
-6.2156196 29.385124 4.423225
-6.608091 29.850264 2.8488963
-6.8217354 29.588682 3.3078997
-6.691569 30.02986 6.3050375
-6.548762 30.798191 2.4414234
-6.71039 30.379478 2.53393
-6.442819 30.994354 7.1490765
-6.521636 30.989126 2.4434657
-6.5094886 31.236288 2.5660696
-6.63024 31.281912 7.1458955
-6.475791 32.07205 3.263572
-6.5510416 32.371357 3.6593513
-6.6559963 32.40664 6.609743
-6.4188185 32.118065 6.9844375
-6.136244 32.930897 4.705855
-6.4229555 32.859077 5.4319296
-6.218819 32.795055 6.2706304
-5.9167347 38.33184 9.058481
-5.8051176 38.116695 9.565169
-5.92194 38.317055 10.104903
-6.52984 38.83401 8.685317
-6.304511 38.586372 10.513653
-6.3730626 39.07083 11.186061
-6.5142593 39.614582 8.128506
-6.652025 39.518482 11.694465
-6.409806 39.803833 12.120105
-5.6542697 40.51256 4.635965
-5.68769 40.501987 5.124433
-6.362715 40.492382 7.678893
-6.474805 40.491745 12.410785
-6.1066537 40.478596 12.547566
-5.5749907 41.117798 4.229049
-5.6403837 41.617012 5.0505466
-6.089279 41.18168 7.807003
-6.7315984 41.562996 11.681186
-6.424924 41.208145 12.237728
-5.696187 43.02666 -3.0341249
-5.8196626 42.91901 -2.6576288
-5.797197 42.68324 -1.7159185
-5.7175837 43.238033 2.0188637
-5.6862097 42.92347 3.7004738
-6.352946 42.135338 10.322181
-6.4253592 41.77415 11.462524
-6.057353 41.793922 11.9045725
-5.8260045 43.359943 -3.0217333
-5.9916396 43.450832 -2.5222504
-5.958894 43.499897 -1.5099884
-5.859591 43.195957 -1.0360576
-6.1823997 43.517727 2.5378313
-6.3833146 43.903126 3.530947
-5.984872 44.237892 4.7144766
-5.67089 44.14223 -3.1366465
-5.9296327 44.044605 -2.595319
-6.014104 44.084446 -1.9714919
-6.496817 44.55769 4.372861
-6.304443 44.56278 4.703433
-5.6693945 44.684387 -2.144623
-5.824161 45.684727 1.3478922
-6.3586884 45.63174 5.204331
-6.3101044 46.005405 1.7016753
-6.4666553 46.47307 5.08988
-5.6805983 46.347885 6.4003663
-6.3557596 48.298008 -2.184346
-6.3036094 47.34543 5.353978
-6.5404644 48.710403 -2.5779843
-6.406851 48.402195 5.4438896
-5.9860597 48.573967 5.8446927
-5.650382 49.293755 -3.792692
-6.0526223 49.629818 -3.455431
-6.213117 49.265858 5.376175
-5.5208273 50.053303 -5.757681
-5.55146 50.15034 -4.8673215
-6.6010036 50.749012 -2.7517164
-6.425003 50.705074 4.3192153
-6.3457723 49.989117 4.8960886
-5.587617 51.48582 -4.246473
-5.7284756 51.52924 -3.3603802
-6.3260994 51.561493 -2.3093424
-6.562006 51.70911 3.5732152
-6.2155538 51.400093 4.2687383
-5.7479625 51.25798 4.76579
-6.156284 51.6895 -2.3398793
-6.3759 51.944542 -0.76029664
-6.1093736 52.28917 0.86970186
-6.253047 51.977127 1.7397567
-5.793727 52.59608 2.5217655
-6.1541214 52.50557 3.4694924
-5.8020062 52.62212 4.2661395
-5.7420883 53.16416 3.6374876
-5.6949534 53.085335 4.0746484
-4.7722445 25.34775 7.5556297
-4.7904053 25.374819 7.915144
-4.8845882 25.711512 6.934756
-5.039604 25.648643 7.5542846
-4.9233007 25.741024 8.0994
-5.1117787 26.394897 6.967322
-5.257128 26.352636 7.5386286
-5.0080647 26.423948 8.236983
-4.803345 27.20875 6.5964575
-5.1015797 27.321714 7.64741
-4.802281 27.057781 8.333561
-5.6353455 29.290693 5.97076
-4.56596 28.658352 7.5395947
-4.639732 28.186634 8.220825
-5.703322 30.154472 2.691817
-5.4335756 29.514885 3.6289115
-4.8816037 30.144604 7.4871335
-5.7091928 30.539042 2.6252239
-5.581654 31.123022 2.6644707
-5.592348 31.542303 7.530573
-4.624252 31.440676 8.150209
-4.53593 31.432283 9.130383
-5.8501525 31.987898 3.1682327
-5.3804436 32.56931 6.933882
-4.7902017 33.12905 3.9370596
-5.5869627 33.4119 5.327228
-5.160355 33.508488 6.0747776
-4.522166 36.089954 6.953937
-4.816782 37.671425 7.7881722
-5.500922 38.019836 8.870715
-5.161632 37.891167 10.401434
-4.865781 39.284473 3.9328775
-4.7609835 39.067287 4.647423
-5.5282226 38.72173 7.7161818
-5.585563 38.3771 8.5373125
-5.716585 38.40648 10.62102
-5.3892217 38.829487 11.237172
-5.3296165 39.140377 11.705803
-5.171013 39.878094 3.7688859
-5.3344703 39.686584 4.219076
-5.9196906 39.90533 12.31378
-4.6691175 41.17965 -3.0179284
-4.883336 41.235622 -2.0590818
-4.7491446 41.108494 -1.3127601
-4.7776046 41.164513 -0.50305563
-4.7101946 41.16551 0.12945825
-5.050017 40.187614 3.320502
-5.480782 40.516068 4.110241
-5.219225 40.22287 12.327025
-5.7783246 40.748238 12.534884
-4.887095 41.74048 -3.2513597
-5.046724 41.543034 -2.2223115
-5.2074194 41.73046 -1.6734874
-5.136847 41.866447 -0.37114367
-5.009387 41.02147 3.2774348
-5.350803 41.44994 3.761752
-5.273864 41.20732 6.9288692
-5.5385623 41.682392 7.6524186
-5.8120623 41.428417 12.249901
-5.0538216 42.84584 -3.7002854
-5.2997026 42.60367 -3.3126142
-5.5079513 42.46087 -2.8040426
-5.4277916 42.926674 -0.15447518
-5.3661933 42.72342 0.1659475
-5.3294606 42.924065 1.6548811
-5.340045 42.829678 2.0820377
-5.4173636 42.86056 3.5418468
-5.3134418 42.776093 3.9565034
-5.3358097 41.980194 5.7045426
-5.195335 42.535633 7.5865173
-5.6211424 42.29963 10.349811
-4.7139406 42.590267 11.554137
-5.2237926 43.5822 -3.6188822
-5.4768333 43.343002 -3.4348216
-5.4750547 43.495415 -0.07964342
-5.2432237 43.241516 4.8253813
-5.1435623 42.934837 7.7815347
-4.9971123 43.16742 8.271564
-5.19232 43.0996 9.245488
-5.1343217 42.87128 10.287251
-5.3078017 44.29195 -3.3178735
-5.2039685 44.10823 0.32478255
-5.5086145 44.24246 5.006061
-4.6669416 44.897972 7.148002
-5.072013 44.81433 0.4284805
-4.9114914 45.678955 7.3022103
-5.625738 47.209843 -1.5057583
-5.166889 47.3361 -0.36377963
-5.413161 46.599194 6.6090384
-4.925512 46.22834 7.375521
-5.208106 47.80273 -2.815022
-5.6701503 47.635185 -2.3523695
-4.9061136 49.015015 -6.3331313
-4.9417224 48.83902 -5.6239567
-4.992964 48.743694 -4.05387
-5.3432956 48.42668 6.17029
-4.85233 49.69632 -6.902461
-5.2104187 49.65992 -6.40356
-5.485553 49.805347 -5.6255803
-5.4609056 49.36133 -4.337093
-5.7923894 49.31271 5.6487675
-4.8052144 50.29516 -6.9043245
-5.2414975 50.247234 -6.3065524
-5.4788575 50.4972 -5.717577
-4.9570937 50.22652 5.410466
-4.9049497 50.743313 -6.538187
[...]
POINT_DATA 7670
SCALARS features_00 float 1
LOOKUP_TABLE default
0.93233275 0.9571073 0.9197936 0.8027956 0.9539852 0.990674 0.9761441 0.83959395 0.74497926 0.94274944 0.9732235 0.96108806 0.8191449 0.7187107 0.88868314 0.8534696 0.7636596 0.64111733 0.6621386 0.69904155 0.63182616 0.65395427 0.6943674 0.7304635 0.6448897 0.67821646 0.54943824 0.5522269 0.5386853 0.54473984 0.5381723 0.50945413 0.5183308 0.5401145 0.5517556 0.53022546 0.56099844 0.5688921 0.49438325 0.37006384 0.5782954 0.5439609 0.47788185 0.49194422 0.89172244 0.89309776 0.8505174 0.71465886 0.6150062 0.9069177 0.7279288 0.66506 0.6293767 0.90229595 0.6847749 0.60715663 0.8695378 0.82789415 0.6898415 0.64319575 0.6110621 0.59154916 0.56289667 0.54676855 0.55009043 0.56628346 0.62363225 0.67088836 0.6795753 0.5469305 0.61442196 0.6527934 0.7168436 0.739766 0.7523874 0.5660685 0.61371946 0.726038 0.76739603 0.77802235 0.60370445 0.63364613 0.6631658 0.73674333 0.76133 0.53808206 0.5863239 0.6117655 0.6615829 0.50249386 0.49878684 0.4945289 0.54186344 0.5523684 0.5318736 0.4838333 0.51237845 0.5337283 0.47106096 0.45929128 0.46753865 0.4869768 0.43319952 0.3549906 0.39510092 0.39566094 0.4898519 0.2839636 0.24394426 0.2859326 0.48217246 0.507107 0.45908546 0.24215296 0.2784154 0.27664 0.28158602 0.41595748 0.4754594 0.2479208 0.23293522 0.26176885 0.5572884 0.3125521 0.27333716 0.2692513 0.4558257 0.4714612 0.48158938 0.42927045 0.33753145 0.3548508 0.31843925 0.29449496 0.7894085 0.7403454 0.8000228 0.8253933 0.56063557 0.82102776 0.83164895 0.5093912 0.81869036 0.81744444 0.5469229 0.737349 0.6552628 0.53479695 0.5044091 0.42126173 0.46406913 0.44230556 0.4072013 0.39514995 0.4476019 0.5070544 0.52664864 0.58577126 0.5237801 0.6871408 0.67190444 0.22561345 0.22061105 0.49408808 0.6987783 0.62219834 0.15046534 0.049125273 0.40268785 0.6990092 0.7005013 0.5396934 0.52609736 0.46227217 0.081200525 0.10726826 0.52251226 0.62784266 0.5921468 0.5541067 0.5473222 0.47046 0.40071607 0.22391313 0.38591173 0.36841935 0.57488 0.56862116 0.523009 0.46583396 0.43137443 0.52558196 0.20278852 0.35651445 0.31046456 0.27605933 0.09453226 0.3368619 0.21637052 0.3597093 0.26958176 0.2609221 0.32543746 0.34387174 0.286403 0.7195078 0.5384214 0.42267066 0.28596997 0.28291008 0.4254119 0.28702125 0.32231843 0.3680972 0.3547253 0.37448013 0.28644815 0.32467395 0.23495364 0.32883963 0.43069288 0.48201245 0.5514044 0.5901216 0.6077566 0.7857464 0.7807487 0.7839912 0.80155385 0.7779012 0.82305837 0.8306862 0.74726033 0.73396975 0.65717643 0.5802079 0.4177113 0.21426903 0.23359409 0.627239 0.5941827 -0.012479208 0.63338846 0.63233876 0.28061166 0.112254836 0.20424967 0.6603478 0.26235655 0.24265486 0.31693307 0.2317034 0.014323046 0.014540546 0.2663301 0.26760602 0.24802274 0.21907264 0.2106163 0.29529735 0.40960112 0.3873437 0.41840842 0.24197227 0.2686973 0.5772021 0.36635336 0.31509584 0.24420625 0.19825552 0.11383497 0.19967946 0.218981 0.43363807 0.5603578 0.45384458 0.3675436 0.35451376 0.25340837 0.11189259 0.08885754 0.055829614 0.22237656 0.57387227 0.5238433 0.51874536 0.49746114 0.26592538 0.201167 0.0074756704 0.0061442154 0.06477307 0.045328483 -0.088306814 0.17495175 0.4037329 0.24489528 0.5388114 0.5454514 0.27838668 0.09925102 0.19964753 0.21174444 0.2627673 0.2507305 0.5722501 0.23394035 0.27272096 0.029480841 0.24877368 0.05876156 0.2763176 0.2470373 0.077111125 0.056684084 0.19469194 0.23252666 0.8509855 0.68253046 0.3670762 0.1971587 0.93819356 0.8567397 0.693756 0.4220819 0.2794016 0.9076599 0.82649547 0.7149893 0.3244402 0.82942903 0.60834426 0.44309562 0.6097378 0.45006967 0.19886728 0.16574898 0.5889225 0.6134691 0.13598086 0.29007512 0.5205455 0.6322229 0.6744714 0.663582 0.6561804 0.6942311 0.73373675 0.75911814 0.7632918 0.62348735 0.73304725 0.75188565 0.68209994 0.6177719 0.6265223 0.39094874 0.5080601 0.19573112 0.30011275 0.09373456 0.065515056 0.3881557 0.43493244 0.11132306 0.040552966 0.08623141 0.13100094 0.27344283 0.13945423 0.18336315 0.1602621 0.22740392 0.24524617 0.10569811 0.24249215 0.2530749 0.13063087 0.19490114 0.023218922 0.20896316 0.18906763 0.15604192 -0.074921906 -0.055636007 -0.090802684 -0.009029835 -0.03712614 0.10510602 0.11447027 -0.11107689 -0.08451541 -0.016689539 0.031110214 0.08919543 0.124246016 0.09197648 -0.05606048 -0.0777937 -0.026380409 0.033668738 0.052894823 0.1631662 0.16231075 0.05496441 0.21532263 0.1978428 0.07345737 0.11197136 0.14406827 0.31151444 0.25677374 0.24259284 0.09171657 -0.03869581 -0.18120848 0.059030525 0.25934982 0.12450669 0.46456337 0.42243764 -0.10804355 -0.09244738 0.23974481 0.48247865 0.24518539 0.46563154 0.23328891 0.4657618 -0.0473888 0.11581891 0.5199974 0.17893507 0.032190308 0.20265067 0.15646997 0.116055354 0.7206716 0.31896356 0.100889206 0.18984205 0.18971933 0.9594649 0.8593191 0.64381295 0.23206304 0.26594067 0.97931147 0.9213978 0.84695303 0.76032543 0.5262242 0.6911589 0.63003445 0.47967023 0.6506609 0.20581317 0.24478114 0.36941686 0.71055245 0.70899236 0.295957 0.57506514 0.6569993 0.7088592 0.63645655 0.67656344 0.656434 0.4906612 0.64537966 0.6350757 0.64031255 0.47212476 0.22975351 0.25355747 0.06999379 -0.005113472 0.05336313 0.0572648 0.031528406 0.091095895 0.12350345 0.12893483 -0.13324732 0.14321972 0.3774402 0.35710928 0.019731008 0.015386805 0.17572762 0.27650648 0.39216244 0.42027152 0.40421462 0.229444 0.14676858 0.17615515 0.02190753 0.22885892 0.36940333 0.3957862 0.41043293 0.19455336 0.2382221 0.23846942 0.058111615 0.15805039 0.29526335 0.33056295 0.33907714 0.17937607 0.19789624 0.2022256 -0.010366706 0.06810754 0.015145181 -0.031609587 0.16018954 0.13981985 0.09936633 0.009133181 -0.05646883 0.021332085 0.11341682 0.013872952 0.004625827 -0.16737622 0.026840683 -0.1507269 -0.32431495 -0.33344287 -0.16513032 0.04160953 -0.053748287 0.077438876 0.14994359 0.15248467 0.1471779 0.13912904 0.04753774 -0.095764324 0.11876868 0.21825619 0.17421003 0.22959274 0.24989024 0.23461153 0.28635764 0.25988397 0.27494347 0.25587636 0.26307744 0.13592815 0.2169855 0.23576176 0.16624212 0.14150468 0.1415979 0.5322802 0.4902972 0.21097349 0.19315135 0.94094294 0.8072572 0.23687166 0.21252808 0.9860689 0.2551298 0.26366168 0.24664204 0.9183533 0.7881775 0.6772481 0.43351668 0.6315495 0.5681947 0.51888883 0.28959876 0.28780735 0.61451364 0.6208285 0.42166036 0.421602 0.43780208 0.41353422 0.5253932 0.6104635 0.6712915 0.4828967 0.44093478 0.49344295 0.35007787 0.60034955 0.60839415 0.28209054 0.35997486 0.3563066 0.33959448 0.335834 0.6121733 0.6553673 0.6610372 0.24533287 0.28431892 0.5663851 0.6365246 0.68266845 0.2233448 0.15023983 0.45005226 0.5564219 0.11527197 -0.0039882082 0.21708554 -0.028999299 0.73217016 0.74502635 -0.06979605 0.57003975 0.71524066 0.7268683 -0.17077233 0.008565627 0.24977049 0.28297222 0.2692623 0.4730246 0.6211184 0.6386269 0.34954533 0.09550671 -0.03223537 0.3623331 0.3625328 0.41056368 0.40009433 0.37401384 0.2711918 0.16715394 0.1310508 0.09602013 0.3428238 0.02220507 0.40527517 0.4003609 0.3664232 0.16718306 0.1699859 0.29485154 0.159433 -0.025512204 0.16466033 0.41571772 0.37771702 0.33463293 0.12398772 0.09866807 -0.08288337 -0.17486045 0.026650514 0.08236917 0.19687054 0.09444955 0.22125039 0.41344872 0.571374 0.6329124 0.43631774 0.38961482 0.21215123 0.12184329 -0.11866383 -0.09433001 0.04440281 0.4514921 0.6414449 0.7104858 0.71708894 0.4801718 0.45517123 0.2926298 -0.04158927 0.09809662 -0.10442172 -0.0983327 -0.18428573 -0.09668589 0.37032205 0.5254247 0.6760059 0.76246506 0.7505649 0.44103312 0.4502169 0.31764054 0.129801 -0.3292127 0.12302542 0.17445567 0.5497885 0.6264167 0.6681506 0.69303286 0.44472152 0.40821058 0.28687114 0.11008428 0.24322721 0.5480939 0.57579315 0.61274505 0.24302113 0.28569144 0.27051905 -0.055235237 0.28941602 0.28561956 0.06792356 0.2132507 0.24894777 0.17198223 0.08590244 0.08567402 0.03863672 0.032143436 0.29677695 0.11377593 0.8059909 0.5666827 0.20332456 0.15623793 0.8461038 0.6013421 0.24181439 0.23120672 0.8120259 0.19072089 0.21957125 0.23593493 0.24271342 0.7447792 0.56502795 0.1778655 0.2384637 0.5383449 0.48478484 0.383686 0.36093307 0.30855936 0.30547523 0.49821275 0.46110797 0.5226394 0.503806 0.47098333 0.46197787 0.37976342 0.539803 0.5366854 0.4905049 0.4697644 0.2693112 0.28665608 0.29877347 0.3209958 0.5333041 0.60988957 0.6201068 0.22197089 0.32645458 0.64554507 0.6518812 0.21928 0.25000146 0.6597889 0.1755794 0.40246296 0.017432563 0.29746997 0.6720736 -0.19619036 -0.08136306 0.61928487 0.7037339 0.7272805 0.7205133 -0.27996552 -0.26608378 -0.10801964 0.08040143 0.10907109 0.08901253 0.26551223 0.5636896 0.7327275 0.71243715 0.13839786 -0.22921667 -0.26875234 0.14706093 0.50109714 0.594948 0.3785537 0.3446239 0.18538423 0.026458543 -0.18812774 -0.14524409 0.2535792 0.32519788 0.3845732 0.3907472 -0.12087692 0.11695479 0.39121428 -0.05680336 0.43401888 0.41370153 0.35539177 0.61432964 0.46897602 0.07610135 0.6971485 0.4704899 0.48371145 0.24530713 0.71313703 0.46979254 0.3677346 0.47633606 0.6251278 0.62296927 0.43363452 0.061420497 0.405195 0.52593017 0.5557967 0.5690227 0.37507576 0.22988646 0.11202176 -0.062359877 0.21034977 0.21193632 0.09632295 0.23273098 0.15912116 0.09442527 0.18237665 0.121071935 0.10545778 0.08838004 0.16608474 0.15604074 0.032019198 0.1387452 0.074268386 0.06531891 0.09860277 0.10732074 0.47038278 0.2847659 0.13982101 0.141973 0.2487686 0.4893208 0.14793667 0.29676288 0.41456914 0.35990548 0.31312484 -0.08899601 -0.10537957 0.1918212 0.25731203 0.31573915 0.39501977 0.49356675 0.26129404 0.2186639 0.13749102 0.45375612 0.4731803 0.28270984 0.27937555 0.4873494 0.52587867 0.4599055 0.34934527 0.5530385 0.5619948 0.55063486 0.49305013 0.23571077 0.29011434 0.31128645 0.30161864 0.38896665 0.5045247 0.594304 0.18309824 0.19394462 0.6390746 0.17024563 0.14576918 0.14437553 0.63373864 0.093395755 0.3432904 -0.0014222711 0.05596579 0.014104797 0.5941498 0.57864714 0.05210305 0.008357145 -0.11970831 -0.17506018 -0.37270647 0.049923617 0.532395 0.53414494 0.6610453 0.6512587 0.22819975 0.17514363 0.10198587 -0.011666943 -0.22852926 -0.012362454 0.64456385 0.31192863 0.2659508 0.20858182 0.07952276 -0.017304651 -0.13096224 0.3384521 0.281268 0.36644447 0.3441243 0.106824026 0.17953363 0.2872258 0.28018457 0.37916625 0.034426965 0.06266399 0.23700851 0.3919363 0.4283743 0.4305094 0.54736423 0.4445164 0.6231226 0.43586242 0.4479881 0.49648976 0.39372936 0.40293613 0.0011570305 0.38706595 0.46824306 0.45329857 0.22887206 0.18106946 0.3281546 0.08483994 0.15157287 0.14602692 0.21391428 0.18133958 0.23650795 0.072034456 0.20180544 0.19756955 0.19740862 0.17852181 0.15980686 0.14537548 0.40034997 0.5144597 0.3411466 0.25225687 0.59370655 0.1887022 0.60956955 0.6632508 0.19156985 0.014858405 0.010770668 -0.00027267542 0.55291504 0.58615863 0.6779382 0.37201688 0.3799051 0.269821 0.20975378 0.6414229 0.6952504 0.4488938 0.476839 0.501334 0.48990858 0.4323902 0.53011113 0.54859674 0.5260689 0.28727704 0.24880652 0.24307716 0.26185596 0.34566265 0.37503153 0.3411774 0.08519757 0.2670648 0.24681297 0.04320829 0.16196011 0.02886141 -0.12651436 0.021030404 0.11298899 0.09582807 0.030810455 0.045585945 -0.21564734 0.36110044 0.49545467 0.46829018 0.5355276 0.60367805 0.18010041 0.15888843 0.12308494 0.09090347 -0.20311628 0.43385628 0.3854379 0.47565395 0.3854639 0.3499234 0.51852703 0.5413753 0.23377547 0.20110615 0.16490494 0.1314846 0.167532 0.29197127 0.3902256 0.27293995 0.26030982 0.31383598 0.2817081 0.3357702 0.2954142 0.25157717 0.34098512 -0.022071294 0.11521001 0.20746788 0.25490794 0.23412591 0.28884152 0.2031025 0.30885762 0.16615868 0.1631854 0.3734834 0.3222324 0.12128281 0.11947966 0.3739104 0.11198972 0.39215142 0.16194367 0.28922254 0.26760864 0.23430659 0.14871787 -0.028415378 0.11159731 0.14616507 -3.6671758e-05 0.16765049 0.015953187 0.22377686 0.29186463 0.26126754 0.25884396 0.26047492 0.2969715 0.37073553 0.25979275 0.32225296 0.4160657 0.24729675 0.32880187 0.40492702 0.25634953 0.20840594 0.37263528 0.19044684 0.16645043 0.6332291 0.64758325 -0.008999225 -0.08551902 0.04941474 0.7134646 0.17487372 0.17835225 -0.0021125562 0.3894443 0.6090855 0.7387376 0.74907607 0.2288635 0.2977257 0.11953257 0.111904845 0.07491348 0.7275839 0.7349986 0.7500702 0.39555252 0.45941824 0.40004075 0.20214812 0.15985301 0.067412354 0.07333575 0.38550496 0.42388406 0.4209755 0.34447008 0.11011781 0.15428254 0.16072345 0.09416072 0.12871958 0.2958223 0.33898708 0.29553092 0.16409287 0.26737997 0.24654788 0.05354441 0.038738526 0.10564108 0.15406744 0.4892708 0.5631312 0.61379325 0.16958654 0.13901833 0.10757996 -0.025877237 0.033817098 0.38656846 0.4858423 0.582081 0.62082493 0.6060742 0.17894414 0.12408435 0.17477274 0.1685079 0.31610814 0.5290402 0.54190284 0.14800821 0.3648927 0.27132675 0.23785454 0.20415106 0.14726686 0.17643711 0.12439391 0.28646296 0.21136677 0.13501044 0.2565834 0.24740466 0.16015664 0.1524671 0.27783903 0.12766527 0.1322226 0.3091228 0.2769704 0.109512456 0.12141149 0.31090266 0.27918243 0.07012225 0.17865671 0.2767135 0.3191188 0.02710098 0.1877459 0.23296362 0.35894087 0.27952117 0.12805381 0.116898865 0.10036209 0.030455235 0.10165142 0.118386224 0.11984292 0.16816261 0.2117227 0.39873254 0.43914098 0.24839073 0.45392534 0.5316954 0.24754098 0.25809094 0.5002129 0.5587783 0.18905559 0.43100345 0.52013856 0.12376649 0.36562842 0.1068002 -0.0023688376 0.5153024 0.6609507 0.63569653 0.10911283 -0.026407674 0.32535022 0.37731794 0.73732424 0.16362986 0.07139984 0.045982983 0.020494897 0.51922065 0.6339563 0.7882129 0.77274835 0.76783717 0.19504777 0.26721892 0.120226 0.06609747 0.071980365 0.77711153 0.35820317 0.44223863 0.42943826 0.40308237 -0.09521751 0.11142031 0.316266 0.41128373 0.411209 0.39028654 0.45450088 0.4521711 0.37198526 0.13575795 -0.1386253 -0.009419214 -0.12882791 0.3302505 0.3557319 0.045200307 0.20555961 0.100754134 0.06838049 -0.036411952 0.14081874 0.11620192 0.20093179 0.34939438 0.50627977 0.56285906 0.5730183 0.5535648 0.15992299 0.13712344 0.1047876 -0.32403558 -0.30700848 0.0873652 0.5660219 0.2138852 0.16247833 -0.15691602 -0.055440962 0.5182596 0.49060506 0.19071174 0.111960135 0.17852423 0.19466637 0.191371 0.11779305 0.16701356 0.19996409 0.18883738 0.15544736 0.18473056 0.07840321 0.23799756 0.24019632 0.27014163 0.25123057 0.21042354 0.37174532 0.34642598 0.29453105 0.3874545 0.40235645 0.39327425 0.26200488 -0.06782162 0.08016939 0.18559402 0.30007324 0.37703753 0.40049046 0.390691 0.3474372 0.3375674 0.13518915 0.034683466 0.084364995 0.12834734 0.28242385 -0.02578795 0.17043523 0.5095425 0.6130478 0.18764928 0.63446176 0.46521488 0.58555126 0.63140583 0.117118455 0.0033959895 0.15658218 0.22918238 -0.009765685 0.28970966 0.3526489 0.49354345 0.21850377 0.45270675 0.61964774 0.08882381 0.0076190047 -0.03927497 0.2960024 0.44316941 0.6405264 0.72879183 0.11345013 0.075852 0.06593492 -0.0058424617 0.15685 0.08038534 0.078001976 0.6116669 0.6087593 0.6045097 0.6154362 0.62401915 0.6175436 0.6038885 0.63167775 0.6372359 0.20833698 0.36239344 0.4368726 0.41819507 0.36554068 0.08675811 -0.10403326 0.33369228 0.2762673 0.44920412 0.4620548 0.45215756 0.38503218 0.42492396 0.3976887 0.37222135 -0.007955808 -0.24492267 0.17808689 0.29694334 0.36386442 0.23438537 0.21367663 0.17186755 0.31450027 0.4701534 0.5002806 0.4472748 0.107182495 0.20514089 0.24696408 0.44667464 0.4103123 0.42196047 0.29580474 0.24819294 0.16728266 -0.33634377 -0.1901269 0.3634049 0.32734987 0.2595887 0.3764254 0.35903338 0.11084959 0.17970881 0.1976005 0.42988652 0.30975416 0.19623893 0.21149243 0.3461923 0.21446203 0.22467291 -0.1336739 0.1329732 0.15567128 0.14419682 0.10513303 0.10782572 0.19857618 0.172575 0.12750773 -0.0018412452 0.076121874 0.20084423 0.14203805 0.20425403 0.39670247 0.29116416 0.29441917 0.36436045 0.36427277 0.46270266 -0.13039601 0.043662004 0.20489216 0.36814684 0.37769198 0.34997487 0.49981785 -0.07051088 0.07829803 0.16094327 0.24055502 0.3368235 0.34562016 0.34128243 0.53308415 -0.017117113 0.044668987 0.03318931 0.28140658 -0.03782417 0.14195313 0.6365969 0.084131524 0.6184367 0.66366017 0.12356344 0.26615736 0.45915043 0.6157398 0.22195195 0.0488693 0.11031024 0.3770548 -0.012182055 -0.019768799 0.46304518 0.0024406034 0.09135436 0.4361175 0.3614245 0.06860113 0.284246 0.26375732 -0.035607807 -0.13106683 -0.28511724 0.21876219 0.037705347 0.0074736103 0.09497061 0.067831635 0.07594682 0.5625508 0.48287734 0.44529098 0.56421053 0.56354034 0.5629113 0.49325627 0.55814147 0.6279942 0.6146613 0.52717125 0.5864352 0.62993246 0.6595244 0.6453519 0.48689798 0.56105745 0.6203799 0.6675294 0.6547444 0.3278202 0.33164144 0.34581652 0.042529 0.3127249 0.22648655 0.5336604 0.51430863 0.44380826 0.13640803 0.10752301 0.034439404 -0.09443018 -0.062911585 0.27510184 0.17604634 0.48980957 0.51291656 0.49953902 0.44081032 0.23394674 0.1159285 0.11322735 0.12438788 0.3188444 0.39448994 0.014686525 0.19506782 -0.20404044 -0.14789246 0.082263485 0.28497648 0.4143493 0.4655441 0.4221072 0.11888477 0.14557147 0.2120315 -0.018508272 0.34578952 0.34151196 0.33509535 0.23166883 -0.3019114 -0.11241361 0.30215108 0.15047023 0.5038546 0.4217717 0.33672598 0.06932485 0.120357074 0.5338056 0.45592123 0.18609117 0.19050726 0.17808354 0.5159565 0.48934895 0.18199416 0.4048036 0.3785872 0.1590176 -0.25884137 0.091048196 0.11170271 0.16640148 0.5786643 0.57973 0.066206545 0.15764311 0.5830674 0.5913032 0.59990764 0.1919796 0.60898316 0.14154607 0.48329735 0.23835337 0.5721988 -0.1666151 0.27281216 0.23260917 0.6109634 0.59525585 -0.19083224 -0.33586162 -0.11314891 0.007330142 0.08575462 0.16846968 0.29786578 0.2891953 0.21981737 0.6231921 0.6217611 0.13992646 0.28095135 0.2859107 0.23252237 0.6373056 0.67024785 0.32967496 0.1652908 -0.06708018 0.35269782 0.46141866 0.26879495 0.4084456 0.52484155 0.41431206 -0.008709149 0.09575941 0.3743739 0.49845475 0.43202198 0.07696933 0.22379935 0.515213 0.1105923 0.51483774 -0.023983859 0.08673056 0.0969245 0.5398816 0.52507347 0.5038806 0.47882655 0.3884319 -0.029674634 0.06339988 -0.101120874 -0.2177569 -0.22747153 0.5328934 0.5507364 0.27925384 0.19234854 0.57236284 0.49801117 0.40326357 0.3337138 0.20455126 0.36708575 0.35727593 0.5762658 0.53628844 0.46541655 0.33466226 0.48796046 0.49802178 0.3600365 0.60083425 0.5606934 0.38441372 0.4206401 0.6328317 0.61404264 0.38705468 0.4560949 0.48147112 0.64257294 0.6338061 0.6110896 0.52699244 0.6057958 0.5937168 0.6858214 0.75797915 0.78432333 0.19840784 0.3215305 0.08942755 0.016098663 0.13318649 0.59865576 0.7 0.78186405 0.7941828 0.12776 0.10497206 0.07962248 0.068408385 0.08202772 0.10244526 0.5480149 0.5973327 0.6644332 0.77358866 0.7755449 0.5066236 0.5343344 0.5337043 0.49995673 0.07920268 0.13481146 0.110445976 0.0694859 0.04869823 0.07523033 0.4417223 0.49503505 -0.12416632 -0.0018177973 0.020099059 0.11652942 0.36034846 -0.047425628 -0.21237801 -0.23960204 -0.0033871233 0.043169167 0.20862763 0.3366376 0.34550408 0.3183841 0.182228 0.10299014 -0.22792673 -0.19298458 0.2705242 0.19356884 0.49243784 0.40371495 0.3006403 0.23261783 -0.41143274 0.120366715 0.19736245 0.5407648 0.045921788 0.18322659 0.18438107 0.61093915 0.58097565 0.16317865 0.122134045 0.6003357 0.55181074 0.13389638 0.51888204 0.46501368 0.43413556 0.31811985 0.14897877 -0.015921947 0.09476911 0.41123196 0.50575763 0.5286724 0.55443424 -0.2247105 0.16947323 0.467266 0.57141745 0.570575 -0.09789535 0.23847705 0.5239447 0.6026548 0.60475314 -0.08134126 0.23745006 0.43772072 0.5521614 0.6295062 0.64435625 0.6457756 0.47986475 0.1527684 0.22140634 0.5643184 0.61602986 0.63783276 0.646361 0.5462886 0.51716757 0.05557861 0.6094872 0.058700625 0.6555525 -0.12754606 -0.037490502 0.17860642 0.12158199 0.647704 0.66164935 0.20025788 -0.03283614 -0.21325798 -0.4304489 -0.118850075 0.0024705678 0.06044312 0.035912905 0.20213123 0.19450766 0.6565543 0.6737976 0.45515907 -0.061482273 -0.14596462 -0.073671766 0.12792078 0.17021185 0.20288938 -0.43774134 0.26258308 0.09772788 0.27439326 0.4394015 0.02097273