# vtk DataFile Version 2.0
Really cool data
ASCII
DATASET POLYDATA
POINTS 2778 float
-19.675116 56.091114 24.117804
-19.80929 55.82036 24.744843
-19.768858 55.773945 25.244078
-19.74165 56.906734 23.803875
-19.956396 56.439175 24.577862
-19.939404 56.50617 25.336884
-19.740686 56.552467 25.92008
-19.918264 57.63412 23.844273
-20.130249 57.673683 24.356867
-20.006567 57.5117 25.493439
-19.738926 57.638737 26.192057
-19.908367 58.552364 23.855288
-20.123981 58.45066 24.480455
-20.065317 58.353012 25.233084
-19.765772 58.573486 26.046232
-19.837685 58.884888 23.9473
-19.906527 59.026115 24.59155
-19.717745 59.224613 25.421515
-19.68723 59.048775 26.012787
-18.643116 53.795525 21.924131
-18.610973 54.017185 22.366259
-18.680305 54.40311 22.451136
-19.059177 54.814423 23.9226
-19.035854 54.69261 24.591621
-19.342892 55.190342 25.35975
-18.979527 55.17904 25.958387
-18.612803 55.712868 22.843414
-19.51932 55.962925 23.709204
-19.527054 55.356934 24.415314
-19.580526 55.32576 25.057964
-19.161577 55.65126 26.192694
-18.833757 56.353493 23.013935
-19.249775 56.851482 23.42248
-19.212303 56.70571 26.590181
-19.312323 57.73414 23.29268
-19.071966 57.636314 26.894238
-19.376457 58.526573 23.365396
-19.554344 58.660538 23.494587
-19.460503 58.43754 26.549265
-18.846523 58.669323 27.264524
-19.003996 58.972683 23.38091
-19.435373 59.180393 23.887835
-19.581255 59.385807 24.56058
-19.432014 59.53432 25.41985
-19.43769 59.353718 26.150904
-18.8805 59.55023 26.957361
-19.123312 59.71586 24.54643
-19.084942 59.94607 25.399406
-19.04274 59.856556 26.28078
-18.786892 59.878723 26.896925
-17.601435 51.168102 21.53521
-17.635551 51.84275 19.868938
-17.84037 51.90805 20.430462
-17.666557 51.308308 21.492527
-17.915869 51.991665 22.137634
-17.975534 52.88997 19.080326
-18.01932 52.641266 19.510893
-18.193125 52.749756 20.425062
-18.144829 52.40884 21.6273
-17.982433 52.646 22.41255
-17.909153 52.82936 23.390768
-17.882229 53.154568 24.394812
-18.096031 53.642517 18.831707
-18.341797 53.656284 19.438814
-18.363113 53.67542 20.34583
-18.405615 53.46069 21.750135
-18.393044 53.577835 23.252098
-18.324774 53.82595 24.157082
-18.157454 54.044548 25.246567
-17.983994 54.209118 18.840363
-18.187128 54.333626 19.50686
-18.251644 54.53197 20.659184
-18.65192 54.365204 25.054426
-18.246243 54.76454 25.992594
-18.042767 54.761482 19.556664
-17.849995 55.323563 20.937216
-18.54705 55.22499 22.060783
-18.56139 55.44301 26.4997
-18.233248 55.832478 26.850792
-18.007812 56.42649 22.170483
-18.371252 56.360157 27.0549
-18.547262 57.212543 23.036581
-18.526646 57.387066 27.203121
-18.063036 57.986725 27.577662
-18.566662 58.296288 27.406933
-18.220276 58.589443 27.621433
-18.400246 58.826843 23.329218
-18.621746 59.249874 23.732672
-18.702785 59.607697 27.048536
-18.209177 59.2456 27.559551
-18.90391 59.676033 24.168922
-18.662996 59.764637 27.024752
-17.519888 63.700653 27.674007
-17.539278 64.25949 26.856264
-17.551172 64.21314 27.66789
-16.746641 47.129993 24.88024
-16.898342 46.950146 25.603474
-16.904133 46.992603 26.422873
-16.76648 47.119915 27.015469
-16.60999 48.055077 23.863354
-16.883282 47.63875 24.788347
-17.243328 47.620483 25.670298
-17.262718 47.70298 26.362192
-16.87844 47.699738 27.158363
-16.90705 48.644165 24.450354
-17.294008 48.397186 25.575417
-17.241896 48.414455 26.475777
-16.965656 48.36081 27.209122
-16.95705 48.9599 24.900028
-16.999432 49.144005 25.396408
-17.250683 48.828056 26.139559
-16.67788 49.19042 27.256268
-16.909534 50.741543 20.220781
-17.38608 50.899223 20.868645
-17.319134 50.63423 21.395882
-16.537111 50.173145 23.29519
-16.652813 50.02783 24.293901
-17.096525 52.1922 19.078856
-17.33665 51.658325 22.561098
-17.245022 51.56723 23.060726
-16.752031 51.74395 24.12557
-17.087458 52.901287 18.380098
-17.706335 52.92742 18.66217
-17.14762 52.34161 24.115797
-17.44713 53.04976 25.06703
-17.564774 53.582165 18.333216
-17.432373 54.157223 18.234962
-17.538242 54.60465 18.551712
-17.374142 55.013157 18.708342
-17.515661 55.122017 19.409227
-17.45344 55.936394 26.913906
-16.793694 55.780567 18.85928
-16.67152 56.30333 19.548708
-17.068752 55.89875 20.415276
-17.706171 56.606644 27.16721
-17.313236 57.06865 22.17098
-17.449535 57.533237 22.70705
-17.163725 57.327366 27.40735
-17.78992 57.77769 27.605257
-17.548462 57.85764 22.982643
-17.538286 58.542828 27.656013
-17.5704 59.44281 27.477848
-17.849632 59.013416 27.688128
-17.11265 60.742744 25.264437
-16.747133 61.447502 24.887033
-16.906351 61.46239 25.530333
-16.720085 61.988567 28.053524
-16.990593 62.60352 25.719824
-17.262947 62.628963 26.58587
-17.101322 62.53409 27.652332
-16.80223 63.33926 25.619947
-17.343363 63.977905 26.411419
-17.488571 63.608864 27.42465
-17.2782 63.632263 28.272251
-16.855637 63.764927 28.833448
-17.04471 64.517136 26.093855
-17.346617 64.61827 26.602259
-17.408215 64.5963 27.64906
-17.235413 64.35703 28.34043
-16.949297 64.246185 28.759321
-16.965479 64.94025 26.212112
-17.102545 65.12584 26.722395
-17.12651 65.21734 27.429419
-16.9664 65.093765 28.1809
-16.763235 65.606636 27.235174
-15.936919 46.347107 25.128277
-16.056303 46.219357 25.719685
-15.992984 46.20402 26.195755
-15.951859 47.208134 23.875418
-16.419382 46.890816 24.881268
-16.517668 46.61459 25.489964
-16.52315 46.5713 26.554607
-16.390757 46.791843 26.976135
-15.601454 48.051598 14.0630665
-15.758962 48.12461 14.529178
-15.810615 47.64633 23.167755
-16.468006 47.91905 23.800222
-16.582064 47.260944 27.352186
-16.065676 47.751602 28.083317
-15.780216 48.613148 14.024926
-15.900818 48.620075 14.615531
-15.800638 48.648884 15.282135
-16.168583 49.081413 20.737865
-16.420103 49.096313 21.518358
-15.937634 48.56622 22.336626
-16.511171 48.216118 23.829983
-16.158611 48.52813 28.238485
-15.845758 48.561516 28.63467
-15.772279 50.001026 13.236225
-15.977971 49.53355 13.771812
-16.151062 49.492508 14.485251
-16.004444 49.571857 15.186847
-15.629045 49.24885 15.8113365
-16.160004 49.620037 20.144041
-16.429512 49.39366 20.68075
-16.518652 49.346497 21.506008
-16.5412 49.336475 27.25407
-16.213903 49.22359 28.02847
-15.854772 50.71039 13.183518
-16.162348 50.591206 13.7324295
-16.32461 50.434937 14.47571
-15.939834 51.102352 19.099846
-16.462288 51.03125 19.600939
-15.903997 49.912697 27.661758
-16.143522 51.14893 13.814218
-16.262688 51.14213 14.213869
-15.916161 51.38737 15.273019
-15.838892 51.060352 25.437735
-15.8978405 52.263367 14.922454
-15.867901 52.3118 15.49832
-16.1918 52.665825 25.944868
-15.76321 53.32475 14.45051
-15.881063 53.884407 15.082083
-16.343061 53.365734 26.141941
-15.654915 54.631943 14.587363
-15.883356 54.161385 15.176165
-16.437557 55.37874 18.207523
-16.175177 55.945515 26.46442
-17.013885 55.5631 26.609653
-15.527528 56.732365 12.858768
-16.55719 55.797607 18.508125
-16.94904 56.46184 26.880365
-15.563816 56.95105 13.402799
-15.790669 57.68279 18.465557
-16.038069 57.60028 19.277061
-16.310534 57.271168 20.208931
-16.362823 57.526737 21.456043
-15.789923 58.326603 18.683712
-15.944918 58.614105 19.532742
-16.014791 58.294086 20.48207
-16.181297 58.222603 21.644487
-16.984316 58.85749 27.563156
-15.747664 59.854557 18.927637
-16.025616 59.35907 19.888903
-15.972772 59.210426 20.698135
-15.726006 59.420956 21.157598
-16.830524 59.040188 27.497978
-15.666702 60.51026 19.16399
-15.8255 60.30039 19.779089
-15.940354 60.0552 20.234118
-15.744902 60.19051 20.91031
-16.516869 61.11397 27.744476
-16.077673 61.880547 24.250679
-16.279118 61.115334 24.62884
-16.396666 62.412567 24.771143
-16.739002 63.10655 28.630476
-16.120314 62.95223 28.821785
-16.110874 63.288998 24.872604
-16.480047 63.69775 25.452461
-16.52312 63.69107 28.97473
-16.006361 64.09456 25.318186
-16.641762 64.393745 25.710514
-16.424381 64.50734 28.932775
-16.518082 65.133804 26.134436
-16.5781 65.42481 26.55164
-16.6648 65.538414 27.728067
-16.435019 65.43434 28.313635
-16.410154 65.06532 28.74358
-16.341988 65.683105 26.880997
-16.48004 65.68458 27.531992
-16.143543 65.720474 28.115786
-15.543936 46.381393 24.911114
-15.448931 46.07606 25.599916
-15.474858 46.155643 26.425686
-15.264427 46.31709 26.99689
-14.661678 46.961845 13.130775
-14.800825 46.85226 13.593162
-14.819679 46.851067 14.186308
-15.465781 46.70093 24.3941
-15.612227 46.591248 27.470541
-15.251471 47.005466 28.13602
-14.845558 47.48673 13.173272
-15.218889 47.520107 13.698883
-15.356752 47.56768 14.471626
-15.186586 47.510006 15.015521
-15.157218 48.21384 21.7849
-15.189511 47.644333 22.871521
-15.537547 47.534714 28.36394
-15.301152 47.964695 28.72505
-14.934948 48.718468 13.047127
-15.545024 48.69592 13.54213
-15.262807 48.535618 15.957184
-15.715279 49.239193 20.17427
-15.339058 48.66553 20.823788
-15.653232 48.65322 21.381182
-15.360795 48.481228 28.775862
-15.31064 49.151157 16.05983
-15.297191 49.182014 28.76574
-15.438427 50.455673 12.813899
-15.586019 50.568832 26.808388
-15.109608 50.354275 27.565914
-15.495365 49.94216 28.159485
-15.305503 51.37344 12.9319935
-15.084017 52.619347 13.133315
-15.537489 52.325195 13.483874
-15.269599 53.019318 16.738737
-15.181059 52.955303 16.94076
-15.540191 52.78431 26.410479
-15.512191 53.58199 13.76489
-15.577813 53.66773 26.49196
-14.985835 53.881306 26.748
-14.7633505 54.29331 13.05699
-15.146057 54.188087 13.409555
-15.108125 56.082848 12.363994
-15.278297 55.509327 13.310505
-15.294809 55.314716 15.099649
-15.982398 55.87552 26.387482
-15.027656 56.720238 12.056758
-15.368666 56.452755 12.535423
-15.216405 56.41493 14.252599
-14.706229 56.936764 17.28892
-15.6467905 56.02041 26.273548
-14.888627 57.669712 12.020568
-15.283518 57.262405 12.477341
-15.469335 57.390186 13.091306
-15.277763 56.97688 14.151422
-15.3651085 57.53363 17.79823
-14.964394 58.43024 12.142694
-14.963069 58.744427 12.536451
-15.151983 58.34736 13.463715
-14.814728 58.03145 14.580712
-15.100301 58.671688 17.702766
-14.667635 59.35219 11.717215
-14.919074 59.547314 12.498418
-14.957067 59.491398 13.335176
-14.926605 58.951164 17.775232
-14.585328 60.199337 11.98184
-14.739201 60.302326 12.630043
[...]
POINT_DATA 2778
SCALARS features_00 float 1
LOOKUP_TABLE default
0.47848755 0.5140099 0.5353094 0.52400845 0.55690765 0.60405123 0.6214192 0.605669 0.6575093 0.6744439 0.6508596 0.64978933 0.68115336 0.67772174 0.63237625 0.6534208 0.6665131 0.6448227 0.6233417 0.26041022 0.24746801 0.2536376 0.33433026 0.37279248 0.48208815 0.5095793 0.29342175 0.428143 0.4435907 0.48437157 0.56290734 0.3562675 0.45939106 0.5965844 0.53089553 0.5776938 0.5879063 0.6148625 0.60953224 0.5498955 0.5743146 0.6429728 0.66413015 0.63216627 0.61122304 0.55386597 0.6335909 0.58063537 0.5597569 0.52936757 0.2620394 0.3850248 0.34247622 0.2650012 0.22508354 0.52637523 0.47943008 0.38662302 0.25811476 0.2135813 0.15155464 0.14809728 0.5440173 0.5273442 0.4497028 0.26625234 0.19493882 0.2035158 0.28053212 0.49146092 0.46273878 0.37017485 0.3548886 0.44949162 0.3929069 0.190961 0.213007 0.5465182 0.50608337 0.14872375 0.50064075 0.3923809 0.51363075 0.48414248 0.5275748 0.5052153 0.48937243 0.54927486 0.5388334 0.5052518 0.6098321 0.52684283 0.82122684 0.7893071 0.86519027 0.5704371 0.66132617 0.70505345 0.6977682 0.4368741 0.56860185 0.6767144 0.7158771 0.70211387 0.47309014 0.6219801 0.68391365 0.68867016 0.47955114 0.5039986 0.62741566 0.6100811 0.343796 0.31680566 0.2865749 0.045864787 0.18579449 0.42027876 0.1587325 0.09279881 0.018903073 0.4839013 0.53860307 0.09091991 0.15261534 0.5464131 0.48360807 0.42664385 0.3564124 0.31864437 0.3558019 0.19906631 0.055656597 0.079536565 0.40758112 -0.021440819 0.18814057 0.36156082 0.45536947 0.28442782 0.4538028 0.44316787 0.48442513 0.069923244 0.1582055 0.19863568 0.5399835 0.39754295 0.63630223 0.7227914 0.4660669 0.6833645 0.7992836 0.8246094 0.8279238 0.66863644 0.7787179 0.88777304 0.9019575 0.8912716 0.72771 0.82350504 0.88942087 0.91874385 0.8773668 0.5640931 0.6145395 0.6188179 0.4188673 0.5560651 0.63127464 0.6745911 0.6710775 0.53119385 0.5335977 0.2867493 0.42536688 0.6849271 0.6566849 0.51776296 0.5404385 0.56569964 0.31129482 0.2745262 0.19732156 0.4133822 0.63792944 0.6084604 0.49217975 0.5102472 0.5267176 0.5471009 0.58176446 0.34166005 0.32633698 0.28132132 0.58263105 0.595857 0.45499596 0.47783932 0.4786626 0.31523335 0.3435716 0.4950561 0.43419823 0.42795336 0.33563054 0.032299414 0.28018096 0.20780598 0.03476772 0.26757598 0.22930935 0.05797312 0.25433192 0.21683364 0.21589565 0.079246186 0.25577596 0.38945034 0.16609693 0.2616166 0.37854642 0.15752882 0.092368305 -0.035100542 -0.19806424 0.26796418 0.2508896 0.11687517 -0.056339204 0.39888927 0.39156732 0.31562054 0.23582608 0.21728513 0.37227428 0.41613418 0.39525855 0.36066186 0.31198442 0.28883845 0.12844229 0.1157457 0.25368142 0.7087989 0.6074309 0.37607557 0.47955754 0.79085106 0.48502284 0.585111 0.8784057 0.71245456 0.8007046 0.8981532 0.8902035 0.88794005 0.84439373 0.88533163 0.8718096 0.5071933 0.54048395 0.55486226 0.53278154 0.58673733 0.5952748 0.58718824 0.44579744 0.6056905 0.6152151 0.56538177 0.55854094 0.5404103 0.55414927 0.17151982 0.21254466 0.62620336 0.5878211 0.49748647 0.50518036 0.60047776 0.3178723 0.25656515 0.24316365 0.5804411 0.5894685 0.5382743 0.44324246 0.32738155 0.3889411 0.47811368 0.39409235 0.28944555 0.33586803 0.11959214 0.10247635 -0.02572089 0.24268599 -0.03251069 0.014498562 0.20587814 0.22540364 0.34923837 0.32843834 0.13986422 0.030838378 0.37020558 0.3772348 0.29331052 0.024642862 -0.021653451 0.37355477 0.38957405 0.39196923 0.31546578 0.15333876 0.37888235 0.3913946 0.3883614 0.32324928 0.28398976 0.40763137 0.4237613 0.4298933 0.30302054 0.43626195 0.45082137 0.45534205 0.35955113 0.40933174 0.41603 0.055069797 0.4004053 0.4099651 0.3740914 -0.15452254 0.36795434 0.40041456 0.52575946 0.7491045 0.6613204 0.7543386 0.75923723 0.7522304 0.43465942 0.51764405 0.8205909 0.75418746 0.75801337 0.7239201 0.6763202 0.60388017 0.7427615 0.84131426 0.8429028 0.7376702 0.7039988 0.8431697 0.8457273 0.85104287 0.60178846 0.6113236 0.5982002 0.44541943 0.4250676 0.3925601 0.5759553 0.6085533 0.59390825 0.5647426 0.2286705 0.32632267 0.36506796 0.4674147 0.47885314 0.56452614 0.5144849 0.14731519 0.14862551 0.5286521 0.40783608 0.4667451 0.28421032 0.25647432 0.5094319 0.35986125 0.39417568 0.27205136 0.17174593 0.39789033 0.4652605 0.09886973 0.3191815 0.31973895 0.34502527 0.22131556 0.21728626 0.08059313 0.14069603 0.17540133 0.0929116 0.24300116 -0.12964344 0.31503418 0.06925509 -0.28567874 -0.17488085 0.3178185 0.34845296 0.12465084 0.37336558 0.38500768 0.40401214 0.41466737 0.25195688 0.15200609 0.40445822 0.4298097 0.3548294 0.34226948 0.18024945 0.4190587 0.42411682 0.43275952 0.37213218 0.2693931 -0.090727106 0.34783715 0.3094869 -0.20943816 0.44412613 0.7136512 0.5929941 0.63746095 0.49544436 0.67139417 0.7379929 0.7003356 0.3916576 0.74763274 0.6953908 0.6434504 0.78900254 0.8104908 0.6981205 0.70157236 0.6519945 0.64370835 0.8056078 0.81115854 0.6482014 0.625065 0.58263224 0.5826124 0.53460443 0.36559427 0.15011176 0.22321582 0.47449535 0.5564854 0.4400363 0.12456119 0.2952847 0.24455087 0.3506456 0.3936666 0.4207486 0.133263 0.11541821 0.3275087 -0.016380344 0.4340339 0.2992603 0.17506476 -0.054935873 -0.48515257 0.088857174 0.23391803 -0.23958984 0.14674313 0.041878767 0.18940745 0.17600012 0.2634038 0.11611566 0.27385497 0.076926604 -0.27013904 0.33803004 -0.040806107 0.33419 0.12962994 0.3713983 -0.1540649 -0.40655887 0.21441561 0.1842702 0.34266868 0.38236558 0.33758157 0.228453 0.30367488 -0.05377742 0.16483171 -0.003083609 0.30345172 0.5312471 -0.18959582 -0.07220608 -0.0067163855 0.37576157 0.42125672 0.48969194 0.5635133 0.5716101 0.073963 0.26971817 0.36330855 0.54805523 0.43401608 0.5809437 0.45709264 0.51192594 0.28328788 0.5532403 0.5010158 0.49203047 0.50628215 0.52702916 0.5209342 0.5355108 0.599653 0.6141945 0.5556036 0.4680037 0.62195194 0.61093414 0.41835082 0.53508604 0.59976405 0.27569336 0.20429772 0.16681355 0.418115 0.60342866 0.3664071 0.21686451 0.13760795 0.07049538 0.09549652 0.34018996 0.21673957 0.29686028 0.21709585 -0.045115173 0.24943283 0.17665263 0.15065119 -0.41872126 0.20585123 -0.023862757 -0.57486916 0.122668594 0.10290548 -0.02142433 0.0034958571 0.13153225 0.21307471 0.2445405 0.09685815 0.43033975 0.4793857 0.38586688 0.09997679 0.4409452 0.47312754 0.13295002 0.29400808 -0.032495234 -0.2501765 0.2141724 0.10190388 0.20115258 0.105040126 0.17795172 0.24024734 -0.073623285 0.080635406 0.08472051 -0.23346868 0.31783935 0.03768485 0.41093352 0.4062913 0.37818152 0.41598207 0.43603292 0.27827153 0.46726096 0.467146 0.42595735 0.40811422 0.55371106 0.5788411 0.54331404 0.59056073 0.61311245 0.40293956 0.4957105 0.54791355 0.629972 0.6556833 0.42337617 0.45823818 0.4389779 0.31741062 0.28283396 0.32065293 0.31230283 0.6506977 0.40333268 0.13842167 0.17296287 0.22377484 0.26173687 0.25599238 0.47092485 0.34382895 0.03965893 0.32204968 0.2019511 0.16134253 0.1617352 0.26600176 0.039927248 -0.4533852 0.2280241 0.18520388 -0.24446988 0.33690292 0.027482934 0.4059076 0.4882618 0.3241182 0.5125471 0.5325126 0.47595417 0.3748628 0.48772174 0.5167279 0.5402911 0.5185052 0.47231585 0.49892586 0.5057076 0.47497255 0.35168383 0.4546908 0.32663622 0.17468119 0.1165259 0.09143278 -0.08927438 0.35757005 0.232376 0.5314783 0.49738356 0.40165466 0.5370122 0.478073 0.42294824 0.20103042 0.557244 0.2047083 0.21755725 0.25744992 0.17829724 0.31761128 0.53703845 0.26161593 0.34584397 0.35356584 0.3255884 0.36361188 0.4565959 0.3988827 0.35863355 0.5359462 0.6022326 0.64016855 0.54463196 0.57452863 0.5661785 0.4785421 0.2086724 0.43850088 0.4994488 0.6542672 0.6810325 0.46673197 0.4875313 0.1920098 0.2063683 0.2635786 0.38717455 0.39354247 0.26899648 0.6182846 0.4422168 0.045742236 -0.1408501 0.16926554 0.17186052 0.2541863 0.4257996 0.38801175 0.048482154 0.3141895 0.32636806 0.2668808 0.25634807 0.24015468 0.044390723 0.096850134 0.12838964 0.23570031 -0.07209423 0.31195676 0.0514017 0.39935437 0.4751138 0.54312456 0.51052535 0.5360358 0.55379736 0.5650259 0.5703949 0.5257 0.5351699 0.44523555 0.46990442 0.41935396 -0.092282906 -0.09932136 0.45261335 0.36568204 -0.052039996 -0.0036537647 0.21674992 -0.008597955 0.09666239 -0.34099853 0.44492826 0.38915193 0.5090067 0.5100626 0.5159033 0.53633744 0.5205994 0.57837623 0.57713515 0.49556032 0.3824882 0.5738909 0.5980899 0.46919253 0.35652032 0.24083799 0.20902756 0.19503246 0.15160243 -0.033399697 0.0051309355 0.18922555 0.2723094 0.21649162 0.22309744 0.2652194 0.51893044 0.5006884 0.47284028 0.46137953 0.56453085 0.5092355 0.46648473 0.44748628 0.5820496 0.5219884 0.400778 0.40970123 0.60318714 0.58174825 0.5717882 0.48704547 0.19646506 0.15809631 0.567011 0.6022856 0.59681284 0.5421666 0.019209333 0.097126715 0.3688763 0.40682125 0.65233105 0.6732174 0.6810174 0.49968958 0.50740576 0.14083643 -0.19482484 0.15092522 0.31737855 0.59637463 0.4696133 0.4665569 0.42203107 0.42191488 0.34587646 0.27586275 0.109182596 0.0066479426 0.17496769 0.12581378 0.20819376 0.15007588 0.34430176 0.40739214 0.50910586 0.4672952 0.50069886 0.5513066 0.5353905 0.5683614 0.57319283 0.5488223 0.5002028 0.12526606 0.46925926 0.38214028 0.11949716 0.059071958 0.36673656 0.38320702 0.5032505 0.5155374 0.5505787 0.57747316 0.5475304 0.50498503 0.5883154 0.5770277 0.44800958 0.4079888 0.5342172 0.58096766 0.28031516 0.23130801 0.14874443 0.086917855 -0.03894013 -0.039049324 0.043563742 0.33534482 0.36854768 0.21170881 0.4564141 0.46175086 0.49430022 0.5043421 0.4753158 0.4723816 0.45816058 0.47591954 0.54222614 0.5338886 0.4313551 0.43824685 0.4976979 0.55644864 0.3565775 0.5826682 0.5412683 0.107783794 0.36508745 0.56558573 0.5766935 0.5669671 0.09954776 0.56809044 0.59292746 0.5162827 0.52773035 -0.35732824 -0.029116482 0.48143464 0.47387838 0.4940123 0.37254524 0.4370396 0.4528814 0.32131255 0.24844071 0.036360875 0.19844645 -0.029296597 0.19702628 0.1482341 0.16168216 0.2726052 0.40562695 0.36474425 0.4488733 0.45687962 0.24201411 0.46164846 0.51744664 0.5162889 0.47628692 0.19924486 0.2574763 0.44600397 0.30531496 0.13555063 0.17271653 0.27025482 0.13645843 0.18852751 0.05779192 0.003629664 0.29586726 0.23445666 0.4623136 0.46945468 0.49155837 0.50970984 0.51975036 0.53250587 0.48866007 0.5594176 0.44048673 0.42995077 0.31853455 0.47475857 0.5343422 0.3553056 0.22871421 0.18626735 0.31622386 0.2371153 0.1956979 0.19534375 0.16237852 0.039193984 -0.021915067 0.023910947 0.3724598 0.40053052 0.3729794 0.19525579 0.0016293451 0.13536361 0.32806346 0.37930977 0.40516973 0.44502586 0.45864463 0.5463899 0.5593115 0.43632042 0.4321195 0.45717904 0.5066547 0.5009016 0.5268083 0.41922554 0.43331856 0.36350322 0.43239957 0.4228478 0.26519698 0.39186096 0.4179401 0.30672657 0.34973925 0.46446025 0.3074182 0.40031502 0.49790025 0.4585051 0.390422 0.35285592 0.349008 0.4163199 0.43426323 -0.00070502376 -0.10385946 0.29770762 0.31049877 0.36094338 0.23412517 0.38453627 0.27704167 0.32936278 0.41792113 0.3461675 0.1894674 0.09643848 0.35072124 0.0419631 0.30487794 0.20918392 0.41304892 0.35707903 0.42767915 0.43728954 0.43100452 0.45341063 0.40993148 0.4071222 0.5079336 0.43146318 0.3855634 0.49723244 0.33214408 0.30082914 0.2707704 0.0143626705 0.3838787 0.3632825 0.25164843 0.1908806 0.0820601 0.092785984 0.043612905 0.15668797 0.2653785 0.4082743 0.40139824 0.4176099 0.5220055 0.58125883 0.5938469 0.33293104 0.3153425 0.3042556 0.36163318 0.57070434 0.353997 0.4314049 0.47643316 0.47696328 -0.23712966 0.106271416 -0.12006588 -0.23500538 0.115526944 0.13525341 0.14457662 0.26946327 -0.20853795 0.47337896 0.535848 0.52232873 0.012633653 0.53754616 0.48588985 0.009266299 0.023352958 0.5215521 0.44669834 -0.054264657 -0.03213494 0.11041771 0.4018339 0.46312797 0.37764373 0.32284525 0.45657662 0.49498093 0.43124628 0.19965005 0.3544972 0.30528212 0.15886867 0.3237179 0.2825265 0.34489447 0.30134532 0.3337182 0.36317772 0.32882488 0.3968689 0.3330577 0.37409037 0.34693277 0.28464356 0.21483847 0.3278235 0.3172142 0.364626 0.34199688 0.3319348 0.31625298 0.29958797 0.17680988 0.13719971 0.13413991 0.37960336 0.4018162 0.39332873 0.21486235 0.19745582 0.17532986 0.14548904 0.37321767 0.50512743 0.5480732 0.58127594 0.55524653 0.36459842 0.3443599 0.2159925 0.47119117 0.4866007 0.38487417 0.37481627 0.49275994 0.5301657 0.36823067 0.27079344 -0.050379414 -0.2236175 0.31029415 -0.1730574 0.4613412 -0.19175617 0.414922 0.45870507 0.40661386 0.0686297 0.37460208 0.4287663 0.5005036 0.2544505 0.5541493 0.5303512 0.11489152 0.5750554 0.040778898 0.057242233 0.5398873 0.009438083 0.46773905 0.39888155 0.0016637668 -0.075934276 0.014748415 0.3194685 0.20481366 0.46259627 0.51971257 0.57063293 0.46887946 0.47818285 0.59741735 0.36819714 0.5933017 -0.23001638 -0.28000328 0.47416914 0.40887678 0.22839305 0.3299801 0.27040252 0.40713298 0.27613506 0.24128821 0.28803426 0.28095195 0.3236525 0.4128583 0.34541476 0.3389827 0.21844056 0.24177776 0.33201274 0.32996005 0.2764072 0.2969569 0.33689505 0.29369318 0.27254626 0.42761707 0.4273044 0.42028254 0.35055706 0.43295732 0.4820817 0.46657354 0.41054976 0.35794002 0.46794337 0.40413517 0.19398889 0.49897808 0.51813376 0.38161045 0.5036652 0.322779 0.30224788 0.33307964 0.35387403 0.45850933 0.23033059 0.29725337 0.39681807 0.5585551 0.1554175 0.51200306 0.3945791 0.2776675 0.46801978 0.47717103 0.42481863 0.26879615 0.415139 0.55720985 0.51691556 0.59471333 0.12934092 0.084613495 0.54777205 0.45952213 0.35254222 0.032611206 0.14711076 0.08406835 0.08031685 0.4471943 0.4825285 0.5100857 0.5572599 0.58613944 0.521859 0.5214313 0.6221771 0.5022601 0.39973772 0.23615634 0.6447416 0.25276724 -0.012334846 0.5337035 0.61185324 -0.45688823 0.29851848 0.4656931 -0.11264233 0.18166226 0.34499943 0.2148138 0.41231906 0.23187539 0.1778095 0.44680905 0.44291586 0.40496254 0.44329882 0.31070915 0.22958988 0.1876564 0.31903642 0.28136176 0.072914064 0.17531049 0.09379412 0.14820884 0.19812822 0.2913932 0.36136377 0.26240754 0.36101812 0.43542403 0.44636422 0.4474089 0.41434216 0.4050032 0.41737366 0.24000101 0.37504137 0.08938606 0.34575504 0.37751594 0.3379161 0.37938467 0.34723154 0.20902579 0.4056778 0.33110067 0.48574346 0.54762506 0.3428838 0.6611384 0.6161465 0.62569654 0.34878278 0.035444528 0.560325 0.5959935 0.40555638 0.39504534 0.521518 0.45423782 0.42678994 0.41864842 0.49791193 0.26590118 0.5752752 0.54233825 0.12887022 0.14076811 0.5590091 0.043973036 0.48536426 0.42513484 0.11578177 0.36270145 0.038622305 0.3972769 0.37044594 0.51005924 0.46667504 0.5537108 0.59865355 0.49422842 0.60317814 0.6153028 0.46455938 0.3198117 0.5758064 0.62410736 0.17271245 0.06278756 -0.113595404 0.5002934 0.090478644 0.3051359 0.1634424 0.12114164 0.22159697 0.29433054 0.33929622 0.33762717 0.38232052 0.40839714 0.098819025 -0.15790504 0.3302787 0.19108048 -0.0688754 0.029924197 0.12289622 0.2160737 0.04703969 0.093260154 0.19646329 0.20058519 0.112602025 0.4349467 0.45365912 0.45633852 0.3998141 0.30838 0.3921311 0.41154355 0.38059404 0.3587536 0.049448274 0.05842626 -0.036880717 0.4471503 0.5797359 0.3660676 0.60999405 0.6723872 0.6672424 0.7073004 0.208965 0.69003314 0.68296266 -0.3828614 0.6200551 0.6579344 0.46003574 0.49623895 0.44218782 0.30425763 0.2712629 -0.066855684 0.6014646 0.45497328 0.46048933 0.5427593 0.48241764 0.47637194 0.23344076 0.5171926 0.20359853 0.5484657 0.5507469 0.32449257 0.18546495 0.1769421 0.22983761 0.12838107 0.010376904 0.14945138 0.29927728 0.10130987 0.4175963 0.3650325 0.41487473 0.39871004 0.4520964 0.5820773 0.31001434 0.18954337 0.3008238 0.51113236 0.17717904 0.21711725 0.1717008 0.102258526 0.13003786 0.29647493 0.26999903 0.05744853 0.14302325 0.14163221 -0.26127094 0.18133108 0.25396305 0.29890722 0.20140368 -0.07214565 -0.07207036 0.13783754 -0.20314051 -0.14507864 0.4243609 0.011476189 0.18541235 0.20132522 0.19355105 0.6231068 0.3878831 0.6678603 0.63367766 0.57241964 0.5220875 0.67342854 0.64478517 0.58298016 0.4356904 0.45799112 0.4282672 0.3544348 0.40660354 0.24946629 0.17385319 0.059049837 0.10449706 0.36056733 0.19893716 0.35722327 0.16403122 0.25615445 0.37801 0.09753013 0.37605742 0.66936713 0.70997816 0.7097556 0.25341746 0.73225886 0.7227504 0.11132692 0.36190316 0.4437266 0.71298957 0.6961561 -0.32941625 0.6853605 0.685309 0.5123965 0.50663006 0.44052696 0.2283461 0.04881972 -0.029947557 0.22166938 0.5901276 0.6565242 0.515828 0.52158135 0.37323225 -0.06361157 -0.19722031 0.026493952 0.24951094 0.3346368 0.48484635 0.48719862 0.27039436 -0.4166686 -0.41371292 0.26755914 0.47754723 0.30557644 0.23800495 -0.4653384 0.5086417 0.4888422 0.46201575 0.41221052 0.33180252 0.13896228 0.53158474 0.49016687 0.4012305 -0.23450866 -0.48912707 0.22499537 -0.14112861 0.16676682 -0.04972335 -0.027048603 -0.19352508 0.12466821 -0.026733398 -0.069155835 0.15890041 0.2778187 0.19657966 0.14654233 -0.022284076 0.12358878 0.14728212 0.17464702 0.100151 0.29972452 0.061283365 -0.03964607 0.31550145 0.3253961 -0.18241286 0.3201856 0.29617673 -0.15657657 0.23901807 0.14849716 0.11624818 0.34103817 0.061898872 -0.22040968 0.43130994 0.2619952 0.39042318 0.09527229 0.26287723 0.20058578 0.20745644 0.44601202 0.23082289 0.715915 0.6297915 0.29374474 0.7327986 0.69336283 0.4735645 0.49287927 0.7282077 0.7135692 0.6594504 0.6074213 0.57210684 0.5948795 0.55877984 0.72078747 0.67353094 0.6394802 0.4331806 0.40638694 0.3059385 0.42492998 0.15825272 0.07880678 0.3775903 0.39800456 0.19947827 0.2793986 0.3381637 0.36745703 0.33114097 0.3623396 0.3816977 0.3000968 0.35301554 0.2776739 0.20907278 0.07663499 0.65353376 0.7226116 0.7365643 0.7290667 -0.10285148 0.6836965 0.7182292 0.71680164 -0.109429695 -0.0134318955 0.7009539 0.7030513 -0.08011443 -0.07554773 0.5266478 -0.12926191 -0.51927245 0.5113615 0.50590426 0.44428885 -0.17173682 0.47363448 0.45664406 0.056253538 0.08693422 0.4308436 -0.39614385 0.20517176 0.23590347 0.109657146 0.04848904 0.002708342 0.00026124716 0.1121071 -0.09814294 0.13959879 0.033976782 0.32759032 0.34416032 0.3730715 0.09541237 0.30405593 0.17213798 0.19238399 0.23834349 0.28576785 0.20887685 0.32410288 0.33537066 -0.11202089 0.33657056 0.31279784 0.2711255 0.2554235 0.19441949 0.27937835 0.20595643 0.3702107 0.4576226 0.28286016 0.43491364 0.3000074 0.29385248 0.22936878 0.16394445 0.21135418 0.23899297 0.7255877 0.76091176 0.55623204 0.757228 0.7463362 0.650975 0.6649833 0.74189067 0.72822475 0.7020511 0.6967151 0.6959146 0.22272587 0.16163476 0.41582054 0.40632504 0.1352703 0.09669041 0.08253001 0.23734741 0.2687148 0.40188617 0.41561508 0.33520752 0.41049767 0.42745692 0.39725092 0.40239584 0.4096539 0.19414459 0.36923993 0.0007864535 0.41364443 -0.20509864 -0.16315559 -0.18715847 -0.14860764 -0.06211482 -0.047553837 -0.288363 0.0823424 0.2214745 -0.20365489 0.09427822 0.28691584 0.22037837 0.06648333 0.17081654 0.12559521 -0.068467274 0.3409319 0.35150737 0.075593054 0.4438591 0.17607164 0.4425069 0.23276351 0.24939775 0.23460963 0.27021426 0.24062699 0.2486282 0.29912013 0.32276574 0.33392388 -0.01609759 0.30190873 0.25448218 0.22752397 0.18680593 0.31322426 0.27408868 0.31399524 0.23222542 0.5929776 0.70059377 0.26544052 0.74327374 0.5680845 0.46531388 0.7522081 0.7469614 0.66479504 0.7330862 0.722167 0.7331238 0.77162766 0.753523 0.7244917 0.33761278 0.24320035 0.41796494 0.40426132 0.35679695 0.21483003 0.16944169 0.12874217 0.15585238 0.41940513 0.2932806 0.41667843 0.4535504 0.42101973 0.46641928 0.45844534 0.35036844 0.47804153 -0.11267065 0.46082443 -0.21451409 0.5398178 -0.25240877 -0.38929206 0.29594132 0.47136167 -0.13860577 0.20534837 0.4361793 -0.26782146 0.6178167 0.10976857 -0.080177665 0.6059648 0.20914695 0.3353181 0.26000762 0.15795395 0.020802971 0.24189666 0.42663988 0.2991122 0.1667374 0.46222883 0.19568945 0.45479065 0.23465183 0.43093008 0.37699002 0.2486322 0.30725452 0.24595505 0.2829477 0.22679248 0.117618866 0.22531673 0.2579438 0.060273632 0.26039028 0.065328635 -0.1427454 0.07040552 0.17082798 0.23177943 0.025386179 0.29244268 0.105843864 0.2830404 0.28081802 0.2437008 0.67504454 0.6608807 0.26853967 0.7162879 0.6549594 0.50615376 0.700167 0.66680926