# vtk DataFile Version 2.0
Really cool data
ASCII
DATASET POLYDATA
POINTS 3944 float
93.30113 39.994415 38.811123
93.32225 39.929913 39.305756
93.2864 40.402435 38.801277
93.276596 40.448177 39.341812
93.38491 40.527813 39.81044
93.31296 41.059902 38.925014
93.393845 41.159805 39.272808
93.97161 39.023018 38.68669
93.97189 39.08657 39.25908
93.99725 39.62416 38.00361
93.63857 39.503723 38.606968
93.58429 39.555923 39.512505
93.84194 39.755165 39.980423
93.8448 40.39886 38.021496
93.49041 40.404015 38.33834
93.659225 40.551445 40.006325
94.043304 41.20083 37.99857
93.65411 41.231693 38.3837
93.48537 41.3752 39.182617
93.83501 41.554825 40.07724
93.88905 42.252144 38.76535
93.73015 42.39675 39.433674
93.98113 42.442867 40.11433
94.139984 43.010983 38.979034
94.10754 43.121216 39.460285
94.078804 42.917465 39.96674
94.861374 38.912025 37.869606
94.452896 38.72226 38.636066
94.64921 38.70453 39.269463
94.37928 39.11632 39.85429
94.58959 39.550335 37.64822
94.54995 39.613884 40.235516
94.94545 40.331852 37.37723
94.32344 40.60568 37.614708
94.30898 40.79098 40.44085
94.99027 41.32065 37.4113
94.68355 41.648167 37.675743
94.29645 41.787357 40.463154
94.66741 41.577946 40.696865
94.72612 42.370262 37.95522
94.406334 42.4905 40.46194
94.767044 42.538597 40.61317
94.779785 43.04068 38.340405
94.58977 43.170055 38.66133
94.48359 43.423496 39.48558
94.55221 43.151073 40.180115
94.783394 43.629288 39.063297
94.8897 43.63837 39.377605
95.00431 43.634396 39.855453
95.363014 38.426308 38.544315
95.15447 38.43666 39.03939
95.356445 38.89292 37.886196
95.53364 38.64912 38.245003
95.33425 38.52045 39.08861
95.2939 39.23349 40.00601
95.82358 39.855453 37.189262
95.50093 40.186573 37.28971
95.11219 40.824635 40.680767
95.759926 41.827644 37.306465
95.50929 42.233074 37.437626
95.42615 42.236732 37.682404
95.43205 42.373993 40.763958
95.56849 43.148888 38.04402
95.3628 43.51279 38.484085
95.42303 43.36669 40.303337
95.18406 42.822445 40.597656
95.60689 43.7373 38.79445
95.60972 43.811066 39.281197
95.48854 43.699646 39.960888
97.3291 34.969086 31.599863
97.2461 34.913837 32.57986
97.24406 35.038567 33.227886
97.2605 35.108135 33.989017
97.1672 35.477493 31.755573
97.08207 35.597996 32.461216
96.99431 35.769585 33.73347
97.005455 35.756252 34.318443
97.2595 35.730236 35.0241
97.48876 36.803272 25.854006
97.29152 36.172295 31.476568
97.18805 36.405884 32.503983
97.04332 36.54443 33.48669
96.96881 36.434113 34.506863
97.48841 37.334927 25.467112
97.42082 37.83344 32.036694
97.244934 37.398808 32.54838
97.1446 36.91732 33.695396
97.291824 37.266262 34.263912
97.401596 37.881554 32.803806
96.1643 38.905975 39.426167
96.54276 39.56533 37.150375
97.411064 39.49276 41.577106
96.52242 40.855232 36.968563
97.03531 41.2827 36.575275
96.51411 41.415485 40.661495
96.39068 42.80408 40.49628
96.59448 43.422264 38.03588
96.471535 43.736355 38.65986
96.26474 43.783974 39.385178
98.14845 34.197712 31.174046
98.1141 33.924923 31.75415
97.89583 34.071243 32.487038
97.970604 34.05185 33.010254
98.09285 34.25632 34.235035
98.246056 35.319313 26.17143
97.893265 34.707645 31.06558
97.67007 34.532864 31.59344
97.52695 34.370953 32.144226
97.62105 34.462833 33.180244
97.72159 34.621956 34.47947
97.74868 34.98326 35.090054
98.15322 35.154636 35.71177
98.145035 36.073166 24.796741
97.91986 35.717754 25.645004
97.89819 35.781208 26.215345
98.08419 36.012512 26.998661
97.55992 35.395164 30.954342
97.68387 35.666214 35.534676
97.855286 35.57484 35.6546
97.89562 36.5354 24.807014
97.59504 36.623047 25.470217
97.64717 36.40222 26.406347
97.7549 36.464943 26.86716
98.38359 36.45188 27.830038
97.73449 36.436043 30.991796
97.6566 36.66723 35.41961
98.21654 36.093136 35.942974
98.31027 36.85807 43.446392
98.091484 37.934902 24.177313
97.71856 37.449947 24.788372
97.53306 37.456123 25.586304
97.58579 37.43605 26.116112
97.787994 37.37834 27.238104
98.23811 38.00468 30.037905
98.168396 37.141354 35.70533
97.91967 38.043484 40.998665
97.98464 37.55172 42.33161
98.23458 37.396114 43.542675
98.37719 37.557587 43.795105
97.749435 38.448036 25.367523
97.82379 38.24789 26.389883
97.95089 38.22194 27.24065
97.92461 38.16393 30.597466
97.69892 38.727848 33.07304
98.336266 38.55533 34.320465
98.30335 39.101223 35.73077
98.007454 38.99611 36.59006
97.076996 38.764156 38.476196
97.72784 38.884598 39.843113
97.49262 38.803894 41.71048
98.09216 38.15615 43.290478
98.375244 39.871593 22.10698
98.27868 39.630726 22.640354
98.20497 39.535477 23.563189
98.15275 39.594955 24.434042
98.129456 39.555794 25.57221
98.31781 39.330944 26.477085
98.41385 39.680237 27.049065
97.92664 39.52788 30.38938
98.11128 39.763542 31.457952
98.00671 39.54126 32.01272
97.85698 39.344963 42.34677
98.28233 39.65526 43.006195
98.40065 40.295647 21.99476
98.38185 40.519306 22.504616
98.321724 40.411816 23.744482
98.239555 40.308357 24.693922
98.20543 40.13233 25.787922
98.18794 40.460594 29.458113
97.875694 40.4162 30.536129
97.79285 39.89611 41.62757
98.30586 41.343605 29.266132
97.84264 41.510918 30.572758
97.897354 41.288303 31.174795
98.37725 41.21024 32.15489
98.217026 41.58927 35.565357
98.24298 43.180603 26.070627
97.86373 42.296665 30.674257
98.037865 42.627823 31.41896
98.0922 42.79433 31.90529
98.06032 42.125164 36.077637
97.72861 42.630554 36.923836
97.4023 42.240646 40.357704
98.11268 43.89644 25.060045
97.94739 43.934006 25.516336
98.04682 43.633938 26.390305
98.32946 43.211285 29.858606
98.28393 43.155045 30.573233
98.208084 43.320786 31.382414
98.179634 43.015923 32.184414
97.74518 43.406723 37.560413
97.157616 43.48046 39.734745
97.61081 42.97763 40.05745
98.23295 44.6901 24.684555
97.84137 44.608097 25.5872
97.855515 44.569096 26.333591
98.03763 44.48412 26.893656
97.5249 43.594524 38.239494
97.11195 43.708305 39.313534
98.211655 45.530914 24.769812
97.913895 45.334415 25.499641
97.971245 45.312912 26.281052
98.26046 46.47926 25.001532
98.117455 46.333828 25.4951
98.2529 46.133503 26.182272
98.32928 46.964508 25.938505
98.48488 49.70396 26.93525
98.47361 49.744396 27.023853
98.82561 34.284454 30.856539
98.61183 33.786816 31.679996
98.65754 33.606373 32.511738
98.38253 33.840733 33.07629
98.6979 34.02304 34.23236
98.873924 34.368774 35.2596
98.824 35.32137 25.179758
98.74884 35.28243 25.460796
98.550934 35.268806 26.224474
98.70475 34.860962 30.344637
98.55038 34.6561 35.47893
98.51216 35.74697 24.840425
98.325935 35.491104 25.306604
98.473305 35.43342 26.788385
98.71774 35.5263 27.37339
98.88671 36.143497 41.74007
98.65702 36.12137 42.786823
98.7074 36.147106 43.282146
98.81869 36.212 43.85183
98.53174 36.597763 24.086708
98.34721 36.58485 35.971718
98.76782 36.92269 40.958603
98.472824 36.360477 41.96477
98.51529 36.520546 43.455223
98.79055 36.813965 44.133568
98.48126 37.172527 24.008934
99.145386 37.305832 36.29255
98.470024 37.734676 40.635582
98.75912 37.626354 44.164997
99.24045 39.131992 21.336227
98.86254 39.068817 21.75228
98.524475 39.015728 22.44077
98.54689 38.6552 36.64025
98.73158 38.58004 37.04753
98.282875 38.66698 38.268932
98.751785 38.19811 44.01505
99.19366 39.601303 21.083002
98.70827 39.473625 21.752224
98.72122 39.421467 34.4685
98.674255 39.67152 43.342045
98.86417 39.18886 43.84391
99.286964 40.628887 20.88456
98.62392 40.14251 21.715637
98.50143 40.387615 23.704735
98.51628 40.484726 26.647762
98.7553 40.712677 26.904743
98.45611 40.14988 42.31779
98.84184 40.183117 43.156113
99.192566 41.320297 20.93504
98.9566 41.62248 21.758127
98.9449 41.57058 22.54603
98.69955 41.19502 23.14826
98.882774 41.61915 24.314894
98.65096 41.095825 26.191519
98.585304 41.427895 32.505875
98.58081 41.112484 35.14965
98.1709 41.68969 40.547523
99.18888 40.802433 42.557545
99.31623 42.222347 21.108612
99.11351 42.068245 21.803452
98.94043 42.12421 23.820509
98.768585 42.970444 24.58002
98.87465 42.518497 28.144552
98.501236 42.154007 32.62739
98.578926 42.27469 32.967384
98.68094 42.13838 40.312084
98.9337 44.009903 24.111969
98.74711 43.233612 24.423706
98.7879 43.200993 28.96505
98.67078 43.291134 29.474045
98.43308 43.66052 30.672138
98.537766 43.473866 32.51846
98.60152 43.096584 32.967777
98.68347 43.24555 37.015736
98.56997 43.286606 37.297333
98.70181 43.418915 38.572693
98.33439 43.321632 39.204216
98.17385 42.819687 39.899944
98.56101 44.659958 24.186558
98.977684 43.878452 28.404226
98.841 44.188198 30.600037
98.86221 44.36206 31.49414
98.978226 44.2376 32.23927
99.00753 43.716354 33.011066
98.42086 43.63483 38.49103
98.59861 45.513573 24.137075
98.5022 45.420986 24.379807
99.06028 45.12186 27.646545
99.16436 44.617634 31.64206
98.88662 46.216675 24.083094
98.61302 46.358997 24.500137
98.443 46.661564 26.352453
99.21015 46.62323 27.249575
98.71597 47.0986 24.835701
98.65213 47.84568 26.55656
98.92844 48.00559 27.542067
98.99507 47.647423 28.810162
99.11529 47.59969 29.20302
99.248886 47.84317 30.017315
98.89337 48.36747 26.574223
98.777596 48.55181 27.430916
98.645164 48.687748 28.326435
98.81467 48.56735 29.189865
99.246796 48.535313 30.2056
98.83278 49.563885 26.040108
98.60397 49.590206 26.516907
98.56933 49.71892 27.222143
98.68618 49.53169 28.48918
98.88124 49.405266 29.425776
99.10884 49.198067 30.00186
99.018036 50.393024 26.029335
98.74911 50.287056 26.53139
98.704895 50.39698 27.534552
98.91349 50.143867 28.46691
99.149055 50.093914 29.424702
99.24561 49.896843 29.894976
99.17148 50.85293 26.119383
99.04777 51.05371 26.766201
99.09152 51.04588 27.406588
99.076195 50.71105 28.145031
99.13305 34.341076 30.838396
99.24461 33.72713 31.58566
99.344406 33.572166 32.359287
99.39205 33.784775 33.384205
99.190285 34.000393 34.25039
99.23096 34.335373 35.1784
99.43665 35.016006 25.764341
99.66886 35.05212 27.18122
99.55426 35.30816 28.68383
99.82656 35.05834 30.268732
99.10257 34.633694 30.43101
99.312325 34.54109 35.4475
99.58964 34.97231 35.745407
99.83628 35.46167 43.14566
99.644554 35.524048 24.493671
100.263664 36.037422 36.40536
99.93339 35.861248 41.13018
99.71755 35.641666 41.687862
99.402885 35.63894 42.605793
99.384186 35.708565 43.167183
99.62662 35.993023 44.00125
[...]
POINT_DATA 3944
SCALARS features_00 float 1
LOOKUP_TABLE default
0.8549993 0.85811126 0.83188 0.8290704 0.81131315 0.80507433 0.80819845 0.92945683 0.9128469 0.8840394 0.90660936 0.8828465 0.8565463 0.7992848 0.8197167 0.8055184 0.72833335 0.7758306 0.80776536 0.7948682 0.80677205 0.83640015 0.8124054 0.8006183 0.82276785 0.82567775 0.8341354 0.8851277 0.84688425 0.8678679 0.81225145 0.8401824 0.6146345 0.7005125 0.75692236 0.5398195 0.60166526 0.75794816 0.71559364 0.6561638 0.78398794 0.76530075 0.717258 0.75264245 0.80582654 0.8123506 0.7638236 0.7772379 0.7891123 0.73044044 0.76401174 0.757859 0.70611596 0.7273705 0.75307745 0.5683184 0.55573094 0.6816323 0.4361755 0.5063187 0.5446309 0.707215 0.6461977 0.6980437 0.7780142 0.7637042 0.69795984 0.7205555 0.76300716 0.59890044 0.5792656 0.57834965 0.61324453 0.5619986 0.5387257 0.56173885 0.6095922 0.62332666 0.5846312 0.481503 0.44629866 0.45974326 0.56994593 0.5288917 0.23334795 0.31663415 0.41725916 0.41420957 0.24588837 0.49806747 0.47334054 0.38829595 0.37238383 0.32796362 0.52941036 0.6503976 0.5538008 0.6123452 0.6776903 0.62911075 0.63650215 0.6223946 0.61860085 0.62860966 0.570738 0.6235273 0.62123454 0.6106417 0.5991235 0.64120406 0.63819194 0.5662074 0.6031759 0.61003757 0.60050994 0.5648195 0.5980264 0.5886679 0.5749303 0.6140869 0.6118595 0.59284425 0.57151246 0.49034333 0.42670035 0.5199747 0.4702089 0.5834062 0.43626827 0.5341592 0.50303227 0.48616913 0.4666229 0.10964743 0.36465335 0.4755965 0.6123656 0.56438315 0.5452037 0.32825255 0.3266915 0.29089844 0.16384712 0.12044315 0.12825654 -0.105361015 -0.12017527 0.22064894 -0.1913513 0.5339565 0.50798213 0.3795444 0.36192262 0.28362 0.22500667 0.18367927 0.17537487 0.10797386 0.16464005 0.1271351 0.08801611 0.40090322 0.38549843 0.37288636 0.33699453 0.22903565 0.1750049 0.14666064 0.17576127 0.19566168 0.32844004 0.22402072 0.2832085 0.2682021 0.27372703 0.26913404 0.31257093 0.33184236 0.38673133 0.42235857 0.3283073 0.40044755 0.4261569 0.34860715 0.3926882 0.3723315 0.29112828 0.37218854 0.4544608 0.4586051 0.41236648 0.58125174 0.45810044 0.3790455 0.43028957 0.42248285 0.350838 0.46263558 0.5812992 0.43984982 0.4446487 0.4127422 0.4605763 0.43544945 0.366366 0.33113477 0.5411869 0.54627836 0.60154235 0.6436571 0.66129625 0.6369875 0.61359143 0.5293299 0.5418992 0.5496996 0.5386964 0.5408861 0.5507926 0.5673255 0.58783066 0.5180327 0.43555504 0.47477558 0.5617111 0.56689286 0.55508363 0.50973463 0.40244517 0.41813934 0.5374571 0.5803362 0.55302644 0.47865713 0.025251366 0.30426326 0.51761687 0.3340532 0.3580128 0.3712003 -0.15186723 -0.16624303 -0.16466776 0.48482203 0.35195413 0.37626827 0.0037281811 0.3848737 0.4389026 0.33926058 0.38189322 0.2327399 0.09378438 0.041830294 0.3366474 0.32728562 0.29152974 0.2783059 0.22106774 0.20540327 0.05107356 0.078040205 0.30068976 0.134606 0.27796492 0.21543224 0.20976824 0.22665131 0.00581713 0.14044318 0.033348117 0.38306445 0.37838727 0.31036472 0.2544531 0.17655954 0.16499071 0.24050769 0.41960245 0.52649426 0.487014 0.3526717 0.36728895 0.40216994 0.43948126 0.38945025 0.33782148 0.06212307 0.42188913 0.5463079 0.57767165 0.5597983 0.41698846 0.39617795 0.40776554 0.11780127 0.55297625 0.39210677 0.43851903 0.285586 0.13189894 0.4202488 0.21334334 0.2715487 0.4006502 0.45459855 0.54759467 0.30542707 0.34374315 0.43911147 0.51693046 0.5741937 0.53950995 0.5338969 0.54224896 0.53758097 0.5627519 0.57407665 0.655515 0.644681 0.62385464 0.57944894 0.5685272 0.5721022 0.68252736 0.6799434 0.65696764 0.6114173 0.5832032 0.6443471 0.6871282 0.634351 0.58318734 0.49152666 0.44739208 0.16436198 -0.028415784 0.3307103 0.53404486 0.44578284 0.33857614 0.42943403 0.38328087 -0.0021684766 0.3530141 0.39040264 0.4746008 0.50030804 0.4989044 0.26116607 0.5419525 0.23745075 0.18683283 -0.1593066 0.46073177 0.64989734 0.63743687 0.27756894 0.45063436 0.6455414 0.63530946 0.32061374 0.3937274 0.2511186 0.23987128 0.13101846 0.1835464 0.41055584 0.18720093 0.17076634 0.27955845 0.11810827 0.13388398 0.07660827 0.10882483 0.20589642 0.2882803 0.29129648 0.36348933 0.37455288 0.16244258 0.48048627 0.54901314 0.28389877 0.5114316 0.2714102 0.26644808 0.24493799 0.31731224 0.3112691 0.5336767 0.58881533 0.18563744 0.531948 0.5819533 0.6005597 0.61485225 0.56897104 0.67044294 0.6686748 0.64996177 0.59519356 0.5474043 0.6362522 0.6144223 0.4151148 0.058516342 0.53886074 0.56241983 0.57964015 0.4697919 0.27157792 0.3020855 0.36393374 0.2051116 -0.06420454 -0.049945034 -0.045064703 -0.14294375 0.44232163 0.22588597 -0.07070671 0.0110536665 0.054814085 0.23264022 0.33168656 -0.05312048 -0.13734719 0.24461645 0.3070836 0.34276983 0.33881575 0.3363747 0.56856984 0.56254965 0.12769042 0.35947755 0.48404056 0.38249275 0.38554168 0.36690968 0.3375935 0.6099808 0.6148419 0.60452473 0.48020416 0.45397085 0.5212218 0.5264103 0.62528926 0.6453029 0.6221714 0.58060724 0.424209 -0.050526373 0.13111323 0.3876906 0.5805331 0.55312425 0.5552133 0.6271107 0.6411476 0.5709568 0.16395445 0.054351434 0.1391707 0.56651366 0.5580368 0.5892066 0.61001873 0.5725251 0.51265615 0.3395261 0.4101359 0.13458933 0.47979194 0.47979975 0.3821682 -0.02815337 0.05071698 0.08475439 0.47581694 0.46989268 0.43044662 0.26216635 0.05422315 0.09811299 0.2073212 0.5579414 0.6420449 0.008469194 0.28373936 0.32682514 0.33075768 0.3233112 0.654952 0.8010457 0.66440135 0.049911723 0.18981078 0.1492181 0.61527437 0.8061598 0.82523656 0.7499255 0.5171209 0.8164288 0.83048093 0.7900899 0.15088636 0.12735853 0.81774604 0.8265424 0.046853326 0.05686518 0.6175782 0.09652831 0.6118171 0.2020908 0.5572722 0.5784256 0.61177665 0.5118325 0.510916 0.52819484 0.59167945 0.5889014 0.44171518 0.47321296 0.36621577 0.42089573 0.46206903 0.4591639 0.4435134 0.44148263 0.41794878 0.22601657 0.35914868 0.3535281 0.33760312 0.4186463 0.4424944 0.38774025 0.5669453 0.5702198 0.23656148 0.22991341 0.20610173 0.13721633 0.19844455 0.32384688 0.5427706 0.5538336 0.54366696 0.37412065 0.37684077 0.24292636 -0.067490935 -0.086545646 0.33333725 0.38761526 0.33813834 -0.100998916 0.03807974 -0.010637829 0.18883276 0.07711889 0.42681938 0.46391377 0.502477 0.49182856 0.43703336 0.30031335 0.3123781 0.30062634 0.3146469 0.27411923 0.33315653 0.35818103 0.067683384 0.10900127 -0.19002506 -0.097179696 -0.022825032 0.24980597 0.41677424 0.384527 0.32070076 0.33083624 0.3429427 0.27857116 0.5230228 0.43899894 0.515137 0.19991514 0.3290066 -0.096120596 -0.11134578 0.049379103 0.19499889 0.45185104 0.37918934 0.3131631 0.77636176 0.48473212 0.5268047 0.39653295 -0.32947096 0.037698656 0.08287346 0.40038118 0.5153645 0.43000036 0.7608019 0.54874694 0.59283066 0.3184 0.23079099 0.21667363 0.35738468 0.50417167 0.6361244 0.54102296 0.37823936 0.5738571 0.6039273 0.44500947 0.54973257 0.58662313 0.54373133 0.52590066 0.4466074 0.55750185 0.53847826 0.5101947 0.4554751 0.11348305 0.56938064 0.59037066 0.52132475 0.37174842 0.44391015 -0.045195773 -0.062066004 0.24501972 0.3760882 0.44691607 0.43182626 0.36324665 0.052676007 0.016032018 0.05941505 0.013717775 0.19374323 0.39368707 -0.020980507 0.1837767 0.35005337 0.39927942 0.6332759 0.5859566 -0.049849004 0.57677186 0.6695497 0.6308424 0.15511099 0.030779049 0.38426667 0.7068387 0.6805149 0.7341974 0.4920966 0.7766042 0.7852711 0.8283891 0.81079406 0.7714944 0.013670672 0.6184374 0.8438643 0.03625987 0.6354363 0.08020839 0.54830575 0.58816457 0.42286253 0.48317245 0.5066302 0.4911234 0.7388911 0.7648128 0.7594347 0.7859006 0.8272281 0.8497817 0.668311 0.6576036 0.73144656 0.73387295 0.7263123 0.7835319 0.8357652 0.80662835 0.7856326 0.54539096 0.6207192 0.691442 0.6340183 0.68970674 0.7793693 0.77896273 0.7784764 0.4298827 0.4558878 0.48194116 0.50561213 0.53924185 0.5996201 0.4818886 0.50025225 0.67025846 0.6997293 0.36303228 0.42647803 0.47273886 0.46076274 0.42586198 0.46891236 0.29532158 0.36869594 0.21094292 0.327986 0.41626453 0.36602455 0.4222527 0.36074233 0.20443946 0.19179074 0.42440867 0.20439109 0.57457477 0.57218033 0.54307914 0.3338778 0.3292743 0.3385937 0.22466895 0.22217995 0.2735006 0.19997394 0.012379408 0.5396957 0.5527684 0.5216153 0.44698548 0.24214187 0.19250916 0.19546987 0.26559454 0.33154017 0.37295073 0.37189388 0.21633254 0.15891305 -0.13231798 -0.10798885 -0.14651872 0.014205564 0.1903716 0.14372581 0.24204913 0.2327244 0.27581245 0.26503026 0.19916594 0.21515535 0.82796025 0.16428308 0.36654824 0.2958282 0.10234408 0.14185187 -0.4009906 -0.196679 -0.06971467 0.37785122 0.2443132 0.27581424 0.72594756 0.77421576 0.8175653 0.84733915 0.3543014 0.43696123 0.42280135 0.30388695 0.26770455 0.02510601 0.29521894 0.25618654 0.26138562 0.29034212 0.6916258 0.7429383 0.7919655 0.8382038 0.85506505 0.4649986 -0.31985158 -0.1763527 0.13543338 0.2853073 0.25628424 0.64743066 0.7818407 0.8364868 0.47789413 0.3810222 0.3433705 0.7591096 0.80477226 0.82015836 0.54852617 0.5353659 0.4805103 0.5490211 0.51571965 0.44664136 0.43608922 0.6172719 0.7313819 0.73976076 0.73360145 0.5027882 0.47266126 0.52745306 0.48534536 0.49873978 0.4580389 0.45530903 0.70610034 0.42126092 0.36927232 0.23252556 0.5998754 0.5080762 0.22528777 -0.061929397 0.34197333 0.3907093 0.06318097 0.23181799 0.46157113 0.2354254 -0.118790045 -0.0030392557 0.16424257 0.2897826 0.24177437 0.5666491 0.1718026 0.17525102 0.5802728 0.59649 0.55677253 0.07431711 0.79934543 0.7235457 0.67222404 0.38015416 0.81568456 0.84262764 0.8065295 0.5383253 0.8773153 0.88776714 0.8874989 0.8562155 0.093624994 0.6020125 0.49884623 0.574427 0.27140677 0.29810673 0.37751397 0.43151775 0.46791595 0.486897 0.58343935 0.7005936 0.7767651 0.8198661 0.7882132 0.8401227 0.83792865 0.5497 0.65190816 0.7476732 0.7863579 0.75992954 0.79725724 0.83804876 0.84579384 0.8065253 0.49295223 0.5679825 0.7144496 0.71609044 0.63621485 0.72392064 0.79488516 0.75840485 0.36596093 0.44365245 0.65606165 0.56954265 0.713881 0.23646793 0.335498 0.41008186 0.4331467 0.39736927 0.45347148 0.61441666 0.5573383 0.7287476 0.661978 0.34472057 0.11819658 0.25003728 0.37949324 0.33240968 0.43862015 0.4497301 0.7088177 0.7152847 0.64394605 0.4264347 0.13486688 0.0807876 0.3415655 0.1401681 0.30624995 0.30278546 0.66197634 0.6537932 0.5651523 0.3517967 0.1503563 0.063590504 0.18049389 0.2532777 0.16194871 0.13045883 0.2890112 0.05183296 0.51645374 0.54581213 0.533453 0.2529313 0.25184616 0.23370507 0.56276035 0.17982832 -0.08283382 0.26771826 0.14776209 -0.025280055 -0.057409856 0.31460905 0.36073014 0.02862266 0.04017829 0.21517938 0.17263708 0.24831104 0.016248895 -0.19940633 -0.12929595 0.03795538 0.2687443 0.3231054 0.3070261 0.81600475 0.8045329 0.7866454 -0.50846654 -0.26480132 -0.39965892 0.7459791 0.8312611 0.8338889 0.21609591 0.28582656 0.30910245 0.27670634 0.6504843 0.84715295 0.2524933 0.36975348 0.24930748 0.22777161 0.21819563 0.8321141 0.3164976 0.22127554 0.23282072 0.4516563 0.7479689 0.51816005 0.43265808 0.312745 0.42724276 0.3817627 0.4534992 0.652416 0.70161206 0.48975265 0.47940433 0.36400056 0.39502248 0.41971526 0.43424445 0.4348151 0.65272605 0.684764 0.69647133 0.42036408 0.31627637 0.48886192 0.4513425 0.42007142 0.1472733 0.22551765 -0.009402573 0.18298803 0.26237556 0.3753809 0.29119414 0.32464933 0.31249318 0.12482838 0.38200802 0.49037018 0.46085835 0.3740282 0.43284774 0.28919268 0.27496517 0.05464869 0.4851838 0.3461576 0.20382369 0.12026101 -0.010215901 0.8476276 0.5704161 0.08135367 0.9216448 0.84578794 0.7861506 0.33832002 0.9312651 0.93217885 0.90028703 0.23438495 0.40094745 0.49867332 0.31112757 0.44619924 0.32114065 0.31820822 0.18344808 0.33158004 0.36692542 0.40266335 0.44459108 0.44953984 0.45716938 0.40942088 0.58230424 0.5691516 0.61882603 0.58712184 0.7081739 0.76469415 0.656178 0.72528625 0.8315276 0.7778332 0.8203896 0.82567763 0.8159065 0.75736535 0.71242 0.73209345 0.798826 0.7808687 0.75669515 0.3179125 0.68086046 0.45144948 0.7069272 0.6784733 0.034707297 0.25292128 0.56308365 0.6389645 0.5526112 0.34638092 0.14915514 0.097069845 0.073781565 0.270262 0.13580742 0.107539654 0.37743077 0.718279 0.7119206 0.05345125 0.23514459 0.08899334 0.075292125 0.33407247 0.6500392 0.6967756 0.03547188 0.009774956 0.08798164 0.068381816 -0.15782847 0.06716186 0.21558844 0.4731595 0.46397403 0.29443452 0.34064585 0.3416804 0.33264136 0.6443068 0.1353271 0.039623093 0.024498494 -0.2733239 0.16614094 0.42310908 0.4276847 0.36330563 0.22491252 0.0058101276 0.28853047 0.5889902 -0.28785837 -0.14654072 0.30327034 0.00043350202 -0.067869306 0.20381773 0.24484956 0.23725262 0.40114382 0.19295093 0.73759 0.7312466 0.73041224 -0.32665968 -0.23131323 -0.24302848 0.19187208 0.72730887 0.77979076 0.78935707 0.08709912 0.7710831 -0.0015787184 0.20683166 0.056977764 0.14766064 0.017686363 0.3033186 0.2656858 0.3596093 0.28542095 0.27434433 0.34280515 0.6651589 0.6869415 0.3409155 0.398062 0.4007941 0.5084853 0.5919898 0.6449969 0.6640332 0.23593226 0.09742752 0.28337303 0.3103641 0.36192417 -0.13157554 -0.15483084 -0.23181827 0.18481 0.33363786 0.018922612 0.29783353 0.26976308 0.530795 0.52063155 0.43360877 0.37742 0.3767928 0.22714771 0.2689363 0.12353785 0.5137896 0.42739946 0.3400506 0.38882577 0.3360043 0.2886451 0.21921957 0.124700435 0.031768758 0.022164468 0.7472398 0.802035 0.5897604 0.52595353 0.39865595 0.33073 0.14301378 0.8967322 0.88585263 0.8344891 0.74171937 0.21657512 0.9155066 0.8751342 0.25616628 0.33374205 0.2861307 0.33687007 0.34431067 0.0065572113 0.0073623788 0.447669 0.19958329 0.49443722 0.5368179 0.6844897 0.63741755 0.573746 0.5295702 0.8156378 0.76372874 0.80019975 0.74131167 0.70583904 0.8834234 0.8709007 0.8128125 0.7543696 0.55330753 0.6728927 0.7824805 0.73470867 0.7714355 0.40566367 0.45340028 0.35346246 0.4074509 0.17806171 0.41668123 0.6375705 0.6256274 0.73836374 0.666524 0.6756996 0.70321226 0.37490094 0.34838566 0.097923055 0.098833546 0.16291201 0.31301096 0.32567257 0.19870654 0.057391405 0.018131629 0.09522952 0.42337513 0.60157764 0.5937556 0.5565619 0.5092727 0.22195156 0.086641 0.071700126 0.6794305 0.16582873 0.14568342 0.050222002 0.14955494 0.07800543 0.2619487 0.16819087 0.33000857 0.33364215 0.28719056 0.6367196 0.67522156 -0.103395045 0.034463745 -0.003413372 -0.09759794 -0.08640122 0.13118134 0.28417996 0.3234612 -0.047184184 0.31281453 0.6254405 0.57197374 -0.18848276 -0.29834956 -0.18556316 -0.03844386 -0.034534156 -0.2889344 0.3108422 0.16023937 0.26427034 0.053357393 -0.079894245 -0.051178437 0.1710403 0.51778436 -0.13991074 -0.25414962 0.15506402 0.16821963 0.18609497 0.16385452 -0.2720688 0.15017323 0.63078237 0.7073738 -0.07470138 0.17680182 0.66072667 0.6873913 0.26223916 0.14823036 -0.060110487 0.6346407 0.3378 0.18343478 0.077359155 0.043609187 0.611468 0.47375363 0.451478 0.35227656 -0.11238618 0.35552526 0.25543654 0.35532954 0.23507525 0.057310704 0.14369826 0.6118889 0.66302955 0.576607 -0.19456932 -0.2510462 0.15463658 0.394496 0.48834643 0.5698012 0.12212719 -0.30921692 0.43645376 0.37141842 -0.17111528 -0.17777842 -0.033720106 0.09893446 0.11851955 0.1171887 0.45780385 0.43558943 0.41928262 0.2626758 0.00691095 0.06684013 0.30094492 0.14220794 0.51802254 0.49223173 0.47696638 0.47019672 0.428661 0.35453463 0.34141597 0.16947897 0.6236807 0.63731754 0.626354 0.5371648 0.4458245 0.39508313 0.3939189 0.4183187 0.21406102 0.092503935 0.7508778 0.7398062 0.72504807 0.5948858 0.43987745 0.40691623 0.32489485 0.22566918 0.8248066 0.8145567 0.78997076 0.005470507 0.3024825 0.0032195486 0.042413887 0.026164498 0.47892332 0.17070486 0.6218548 0.39121822 0.7367873 0.53933907 0.90758467 0.5951905 0.95918036 0.95190847 0.88376 0.8329489 0.7732847 0.89875877 0.86219466 0.4616773 0.49135047 0.5384233 0.62219894 0.25199646 0.3314442 0.59325683 0.64441746 0.6427174 0.41443253 0.44825172 0.47376132 0.3953532 0.41347912 0.42185488 0.22716852 0.24445572 0.17810746 0.15979214 0.2839985 0.48072058 0.43661696 0.45407617 0.49009144 0.3886277 0.39997038 0.17498153 0.18468906 0.17736319 0.19389537 0.33288163 0.41583726 0.50993025 0.32487333 -0.24109256 -0.12486773 0.26745668 0.5394236 0.4379378 0.3838865 0.27204886 0.13751002 0.10394375 0.3108102 0.20368806 0.51597404 0.06662066 0.040309623 0.18949455 0.25818023 0.1732039 0.14504927 0.020868842 0.24983805 0.23582457 0.59555894 -0.31573293 0.30696136 0.32669437 0.057505216 -0.03338978 -0.029537259 -0.14008719 -0.42919213 0.31879148 0.22859064 -0.093337074 0.24776565 0.39347446 -0.12134243 0.12368882 -0.045409985 0.58875465 0.31044805 0.18874371 0.027595844 0.45303988 0.58536667 0.3639133 0.3634364 0.4122448 -0.1316112 0.53179944 0.57177985 0.4776616 0.19363573 0.16515556 0.5523795 0.5736389 -0.20890014 0.16647246 0.19344646 0.24197257 0.43080816 0.47186637 0.20113985 0.20471255 0.22672285 0.36899474 0.5819011 0.5409485 0.4444369 -0.46048257 0.06693074 -0.032440595 -0.064268194 0.16563329 0.033345602 0.3531153 0.51934016 0.578796 0.5711491 0.5566241 -0.06876919 -0.25578994 0.33620822 0.30886889 0.025806217 -0.062488798 0.085071675 0.26441404 0.057447456 0.40748805 0.39583054 0.41218802 0.16637728 0.45898202 0.423298 0.008710129 0.39940384 0.39771312 0.4050907 0.14939015 0.41442683 0.43419647 0.29078737 0.08637379 0.44365734 0.44477463 0.3546279 -0.008350588 -0.30935067 0.20914303 -0.025645878 -0.0355191 0.3287507 0.3059813 0.050881974 -0.025783166 0.38312578 0.46186686 0.29058844 0.592573 0.59058905 0.52990496 0.8344066 0.5473072 0.94853103 0.67744404 0.61221945 0.9780048 0.9780526 0.9428174 0.86447453 0.79745245 0.95947015 0.9326166 0.89890426 0.5961211 0.66725993 0.6593704 0.4472254 0.5066874 0.54472476 0.64461505 0.59649795 0.1771917 0.40916044 0.5420429 0.28865504 0.29729694 0.2534087 0.17360038 0.108952254 0.42211127 0.34647566 0.32675162 0.2540028 0.36004642 0.25094014 0.25438312 0.2895925 0.073558375 0.35067835 0.18637265 0.062090226 -0.14947021 0.08118222 0.3491478 0.36338162 0.34373543 0.26740375 0.18841824 0.4110495 0.24987713 -0.43653315 -0.09285821 0.16318771 0.20401038 0.09274959 0.17775536 0.16352218 0.4238909 0.38329935 0.3052555 0.33281332 0.020990968 0.15967044 0.32357267 0.38678622 0.33583337 -0.10912615 0.33561498 0.37422857 0.19027357 0.23087713 0.20057079 0.2135491 0.20019549 0.22692248 0.20607898 0.23285167 0.29096657 0.44643247 0.30658224 0.39504242 0.36633992 0.043709103 0.4231595 0.20894906 0.46753323 0.52826166 -0.42102703 -0.40739703 0.17425011 -0.13370112 0.06295652 0.3918676 0.33761087 0.5501602 0.20498429 0.19259317 0.4816947 0.54463625 0.5616971 0.53870195 0.272264 -0.21813238 -0.044536844 0.00019790232 0.16608027 0.18887766 0.11711033 0.19013536 0.13076864 -0.03786345 0.40293303 0.42345196 0.6139718 0.6118057 0.6013018 0.5733893 0.20428546 0.10266709 0.08949142 0.12991685 0.35472924 0.32671732 0.61992204 0.6188346 0.4196922 0.29307163 0.5119784 0.48811844 0.4104653 0.23517586 0.37595397 -0.15914023 0.38634208 0.42749035 -0.12625214 0.4272119 0.41371462 0.1324266 -0.122517124 -0.0044480823 0.40031692 0.36051607 0.26541218 -0.3959188 -0.30539685 -0.09737141 0.5096639 0.52645385 0.4001449 0.5234395 0.5388336 0.5431807 0.62021047 0.5565849 0.80566764 0.77909464 0.611854 0.5882047 0.91155696 0.88620675 0.835538 0.70520365 0.6296427 0.93906826 0.92068875 0.8741418 0.82497185 0.5053615 0.6066183 0.6622687 0.6705643 0.40787333 0.44482374 0.66464293 0.63670635 0.37432477 0.34556627 0.3212914 0.18138997 0.14908491 0.37321344 0.1341336 0.06678511 0.20275201 0.19798851 0.26700065 0.03685545 -0.011978585 0.44998282 0.4496161 0.27450767 0.17909785 -0.17585586 -0.042600974 0.0027845278 0.045512356 0.24641442 0.3226402 -0.059686568 -0.07180588 0.08984445 0.07623027 0.084033534 0.17015399 -0.070182726 0.07550754 0.416588 0.49084407 0.50941426 -0.026852598 0.13540494 0.19098136 0.27093494 0.3651699 0.12767254 0.510587 0.06860028 0.3001038 0.33446768 0.37893865 0.12773809 0.048328206 0.325263 0.3269102 0.16308159 0.19660303 0.24350543 0.18111372 0.18436056 0.20158648 0.19784188 0.12967524 0.17022593 -0.2210735 0.18821804 0.18870112 0.22048604 -0.08603719 -0.09952294 0.28215358 0.19824392 0.25642604 0.044267476 -0.10670991 0.30746132 0.26627138 0.1975804