# vtk DataFile Version 2.0
Really cool data
ASCII
DATASET POLYDATA
POINTS 3785 float
90.39783 51.848904 39.885258
90.38667 51.772896 40.25769
90.38801 52.40421 39.81805
90.394714 52.332672 40.303455
90.4747 52.980694 39.839787
90.48253 53.05923 40.132862
90.860756 51.092083 39.735756
90.891106 51.04222 40.382164
91.05005 51.130447 40.85518
90.93334 51.610916 39.11417
90.57949 51.513386 39.726833
90.58268 51.47781 40.452583
90.84721 51.61884 40.935085
90.91805 52.544548 38.984867
90.50972 52.469257 39.567276
90.539955 52.508762 40.655907
90.79369 52.48538 41.00715
91.052086 53.413322 38.940872
90.634735 53.49913 39.711205
90.686844 53.60169 40.371544
90.895584 53.509045 40.89345
91.07841 54.128323 39.17037
90.94995 54.415165 39.696194
90.92468 54.407387 40.20283
91.082726 54.240406 40.754
91.08468 54.68991 39.856358
91.16539 54.703148 40.328297
91.9767 50.289318 39.572094
92.17719 50.102524 40.31529
91.95863 50.930786 38.76545
91.457436 50.62671 40.32544
91.61885 50.96646 41.02598
91.662224 51.67031 38.61043
91.35755 51.58833 41.27534
91.6262 52.480083 38.405556
91.3754 52.46518 41.42292
91.986534 53.62764 38.433147
91.586945 53.463474 38.6004
91.34711 53.62158 41.3038
91.46432 54.274498 38.94316
91.85454 54.201073 41.171104
92.03939 54.811203 39.038906
91.581985 54.914803 39.65911
91.697426 54.931232 40.295994
91.747734 54.668137 40.890347
92.94786 49.758522 39.259033
92.77492 49.935173 40.500286
92.458496 50.244846 40.845383
92.366776 50.79274 38.673676
92.41844 50.545708 41.01209
92.59192 51.628277 38.316563
92.32187 51.21677 38.526505
92.566895 51.49568 41.498707
92.20095 52.365116 38.203228
92.37931 52.56892 41.488754
92.26871 52.58225 41.62035
92.62164 53.36805 38.21955
92.67206 53.65639 41.575706
92.345116 54.550293 38.81417
92.377304 54.467186 41.104298
92.51699 54.925987 39.082832
92.503334 55.153595 39.79877
92.507355 55.115993 40.312214
92.38221 54.776703 40.85087
93.94717 49.448315 39.287052
93.59038 49.99074 38.65913
93.17654 49.571827 39.430763
93.348015 49.910732 40.86166
93.94988 50.686424 38.014465
93.766914 50.619537 41.35163
93.47217 51.74009 37.95695
93.21114 52.302967 38.033146
93.95422 52.48429 41.621506
93.587135 53.516285 38.043613
93.31246 53.482895 41.60629
93.60045 54.164944 38.245422
93.79038 54.019833 41.276382
94.37462 54.58574 45.302242
93.6053 55.068626 39.098007
93.39331 55.253838 39.570084
93.6211 54.73155 40.811436
94.46062 55.316536 45.61735
94.46029 55.061916 46.25557
95.2028 44.23171 36.936855
95.17169 44.279087 37.48437
95.23081 44.796967 36.033466
94.832184 44.639034 36.891064
94.80339 44.73601 37.498566
95.03408 44.8131 37.969955
95.231445 45.481365 35.84615
94.72565 45.38153 36.657158
94.60013 45.403595 37.447296
94.88585 45.355854 38.003223
95.1089 46.1437 36.191143
94.97596 46.11948 36.62057
94.6606 45.919315 37.29688
94.905525 49.14229 37.601395
95.19235 48.37575 38.397522
95.278824 48.763428 39.214684
95.0387 49.60931 37.115562
94.95522 49.53722 41.176445
94.14173 51.630383 41.831158
95.076675 53.35126 45.318756
94.010796 53.78254 38.067352
94.72443 53.839012 44.795
94.91076 53.625698 45.717014
94.75879 54.19314 46.197666
95.212654 53.971844 47.1225
94.02031 54.0428 38.171196
94.19554 54.617275 38.642845
95.36797 53.97777 42.390236
94.77539 54.215816 44.057755
94.53241 54.527924 44.30795
94.525444 54.682945 45.64068
94.61204 54.63875 46.479866
94.96686 54.563934 47.16771
94.0635 54.96214 38.847076
94.26906 55.106125 39.421524
95.02938 55.70096 43.751163
94.514786 55.37816 44.81976
94.53104 55.539818 45.506393
94.715866 55.45453 46.680664
95.0886 55.331352 47.31636
95.105865 56.490574 43.954243
94.706764 56.206154 45.34381
95.02366 56.75479 46.18663
95.42565 57.51261 48.735886
95.42962 57.697815 49.137417
95.27536 58.698456 46.841972
95.025406 58.699184 47.640205
95.08281 58.59289 48.297066
95.29428 58.52842 48.896797
95.26989 59.34497 47.125908
95.0958 59.38034 47.62593
95.14646 59.207333 48.369556
95.31839 59.050224 48.884727
95.287346 59.827118 48.06552
95.281654 63.847523 41.72419
95.084274 63.722683 42.422146
95.13795 64.04376 43.35305
95.162224 64.4056 41.936306
94.92174 64.52854 42.600075
94.77735 64.8853 43.380608
95.19431 65.01388 44.279137
95.21675 65.3061 42.09316
94.84332 65.62647 42.718296
94.686676 65.646454 43.438297
94.839355 65.74476 44.067802
94.97543 66.20684 42.873833
94.86743 66.27496 43.425316
95.07212 66.37869 44.111893
95.17815 66.74228 43.49659
95.296936 66.78386 43.976124
95.803246 44.12759 36.008377
95.699715 44.024574 36.496864
95.637955 44.04388 37.389797
95.7667 44.26952 37.972324
96.039375 44.86139 35.008087
95.628654 44.706993 35.62577
95.54225 44.622456 38.14234
96.06269 45.63467 34.757294
95.56936 45.786568 35.52144
95.69923 45.377144 38.400356
96.19227 46.054863 34.578743
95.58667 46.36925 35.731045
96.20326 46.41404 38.506756
96.23462 47.24119 35.05986
96.07318 47.457687 35.63761
95.74273 47.646217 36.25368
96.24065 48.337795 39.81379
96.18254 48.3366 40.430695
96.25093 48.58173 35.993233
95.39476 48.70807 36.90903
96.01552 48.533108 39.69541
95.97785 48.885277 41.19038
96.10298 48.7949 41.917473
96.30594 49.2169 46.544037
96.23135 49.293934 47.08639
96.185036 49.285954 36.389423
95.440605 49.583786 36.68706
96.24581 49.42481 42.503086
96.05511 49.854767 45.725086
95.97843 49.662777 46.568924
96.10323 49.693794 47.415672
96.25148 49.949474 47.990147
95.35507 50.033535 36.833523
95.60649 50.8531 42.244038
95.863144 50.578625 45.89138
95.704956 50.488895 46.425777
95.8851 50.38425 47.36948
96.197716 50.37381 48.02576
95.253624 51.758205 37.521057
95.60552 51.310276 42.14345
95.81381 51.088074 46.6895
96.2175 51.341465 47.59033
96.232086 51.093346 47.996956
95.461815 52.208317 37.393898
95.79307 52.73735 37.595654
96.21202 51.954876 42.6073
95.93461 52.81953 43.173874
95.93676 53.203495 45.039856
95.43491 53.08475 37.742863
95.82486 53.35919 42.125816
95.760414 53.96441 47.36994
95.68827 54.13659 47.669613
95.637505 54.501736 39.925964
95.82373 54.381878 47.732475
95.79965 55.83068 47.96534
96.26902 56.4226 42.18957
95.562325 56.517628 43.18036
95.658455 57.0683 48.56406
96.01144 56.91199 49.5914
96.155205 56.984234 49.863598
96.22764 57.08263 42.62558
95.638954 57.359924 43.85262
95.51597 57.393074 44.463367
95.55156 57.377422 47.982693
95.645744 57.52597 49.508312
96.01607 57.5371 49.941143
95.59444 57.730232 44.884903
95.605995 58.47275 49.446205
96.01195 58.470608 49.89509
95.747505 59.503914 46.707344
95.662025 59.45399 49.088028
96.11977 59.10207 49.7257
96.199905 60.22792 46.88886
95.62479 60.151436 47.708103
95.8118 60.185146 48.445274
95.95314 59.955185 49.021423
95.712494 63.055412 41.714367
95.84809 62.657402 42.473293
95.56647 63.09803 43.187088
95.893234 63.53974 41.29367
95.53263 63.577442 41.532894
95.51734 63.463017 43.399345
95.53587 63.991085 43.78505
95.366295 64.35599 41.676548
95.491776 64.705925 44.311783
95.513916 65.30781 41.928493
95.588196 65.61046 44.773396
95.573364 66.2158 42.294712
95.5408 66.4982 42.539932
95.33265 66.33393 44.46102
95.80348 66.61466 44.74047
95.70871 66.839516 42.91623
95.65421 67.06577 43.52909
95.80779 67.04355 44.20667
96.0261 66.75608 44.742
97.10506 43.401928 36.179188
96.76099 44.21518 34.95599
96.80548 43.7653 35.45898
96.455734 43.61532 36.582058
96.53797 43.725582 37.374367
96.58962 44.06203 37.957783
96.50014 44.70839 34.58587
96.43134 44.66165 38.402115
96.8062 45.51641 34.003674
96.419 45.630623 38.66755
97.15615 46.30065 33.804874
96.38975 46.13285 34.416424
97.26847 46.873665 33.88349
96.695526 47.516384 34.735947
96.68248 48.104507 39.711662
96.950966 47.985947 41.52609
97.06841 48.163322 42.16138
96.94351 48.789948 35.278187
96.44598 47.997288 35.329235
96.455734 48.42296 41.6642
96.53898 48.607655 42.171246
97.0491 48.804146 46.000366
96.839355 48.832985 46.625427
96.73943 49.012527 47.3366
96.83515 49.275326 47.904625
96.99775 48.97032 35.25439
96.822586 49.602676 44.40623
96.793076 49.77318 48.287926
96.977974 50.134033 35.71271
96.510864 50.197937 43.947792
96.49165 50.40709 48.312458
96.866425 50.333176 48.549904
96.73817 51.013565 48.3342
96.56451 51.943764 37.35754
96.563644 52.51146 46.569416
96.80196 51.829853 47.809666
96.51822 54.915474 47.781532
96.38039 55.86141 47.973537
97.25896 56.71475 39.104973
97.09329 56.514786 40.570118
96.85046 56.977814 50.187695
97.43918 57.631256 38.17885
97.334785 57.716953 39.03327
97.07837 57.001656 41.75433
96.67704 57.48941 42.448837
96.71384 57.57376 50.33346
97.34882 58.40901 38.47039
96.70282 58.3651 44.898937
96.6423 58.39925 50.344013
96.97535 58.25208 50.538383
97.34192 59.456364 37.46873
97.427284 59.75017 38.125526
96.91861 58.903984 45.703495
96.57797 59.144566 49.990078
97.41467 60.061466 37.504486
96.31952 60.44134 48.676235
96.64317 60.131508 49.325844
96.82633 62.150387 42.029625
96.46817 60.806225 47.824142
97.10713 61.12787 48.189877
97.1663 60.673447 49.11859
96.881325 63.156265 44.230293
96.5299 63.771076 41.112553
96.932076 63.91951 44.77835
96.50142 64.31819 41.11857
96.58194 64.25083 44.78879
96.56955 65.00703 41.351166
96.72684 65.46504 41.616234
96.16348 65.81515 45.029144
96.27064 66.19125 42.023293
96.71468 66.35845 45.01855
96.5481 66.92777 42.78884
96.48826 67.28678 43.625645
96.565384 67.204216 44.256985
96.516716 66.873 44.78793
97.77641 43.307552 35.161034
97.82508 43.125153 35.65012
97.84045 43.08435 36.20738
97.57138 43.320007 36.92794
98.15588 44.21616 33.92207
97.64264 43.39483 35.114376
97.26061 43.515514 35.32808
97.190186 43.87698 37.66705
97.39118 44.01211 37.96698
98.129776 45.119507 33.052635
97.788315 44.82403 33.59879
97.21627 44.658432 38.381382
98.00807 45.64367 32.853264
97.39037 45.376637 33.4564
97.66179 45.78107 38.914
97.96187 46.25643 32.878487
97.5586 46.68506 39.26844
98.06175 47.332687 33.46811
97.360085 47.781597 40.87413
97.458244 47.8563 41.501244
97.41079 48.069576 42.36869
97.32512 48.336605 42.77479
97.42527 48.03716 34.583214
97.51435 48.41401 43.05864
97.85823 48.915276 44.734764
97.51113 48.569355 46.692272
97.30338 48.711784 47.192688
97.42623 49.18055 47.902817
[...]
POINT_DATA 3785
SCALARS features_00 float 1
LOOKUP_TABLE default
0.7750413 0.777928 0.77411896 0.7748412 0.7864771 0.78856635 0.7921417 0.76601434 0.75088775 0.7798915 0.7789208 0.77659214 0.76478744 0.7676045 0.7688844 0.7671391 0.7737943 0.79667413 0.81303763 0.81423104 0.8081964 0.8342478 0.85555345 0.85383576 0.83080614 0.8599974 0.8519944 0.733165 0.65524375 0.6407281 0.72590923 0.7028639 0.6530333 0.7454243 0.65743506 0.78236985 0.6831738 0.73989105 0.8024254 0.8152128 0.7699965 0.7844167 0.8483201 0.84373677 0.80666286 0.5985961 0.5897642 0.6143119 0.5596962 0.6087407 0.4901293 0.53194416 0.58468986 0.55826247 0.61865354 0.6365433 0.57326484 0.63984036 0.7170136 0.7408875 0.73476267 0.81318974 0.81770736 0.7755087 0.40472698 0.4414761 0.5688685 0.4904315 0.32408896 0.39698297 0.38550046 0.43165386 0.3665006 0.4386434 0.5557421 0.520474 0.55741173 0.48043263 0.59840304 0.6858745 0.7216316 0.46759516 0.4900865 0.7938105 0.7962811 0.6974479 0.8331953 0.85062337 0.81187266 0.5680949 0.7829511 0.88222516 0.8470212 0.48191875 0.59230304 0.82383657 0.1999798 0.21418023 0.12511352 0.12317327 0.15835918 0.25188082 0.44917464 0.40463907 0.45944977 0.4868826 0.5111443 0.48528218 0.44000348 0.49769214 -0.1540268 0.39462888 0.44990042 0.48869756 0.50728154 0.49283624 0.53680634 0.52935106 0.38407558 0.44902545 0.4524522 0.4720891 0.4605919 0.3456843 0.41203442 0.3589009 0.4971315 0.5345448 0.50146866 0.57734084 0.5807793 0.5783082 0.58282095 0.6119698 0.6085292 0.5963272 0.61625385 0.7204984 0.76750135 0.7747381 0.74025095 0.80202043 0.8523837 0.8107978 0.7602873 0.8459964 0.89847517 0.8872832 0.87600505 0.90241253 0.8886461 0.9016489 0.8930793 0.6491493 0.7054297 0.74015033 0.7100239 0.50894207 0.6087074 0.7280708 0.40736288 0.44324505 0.6740233 0.340997 0.34617177 0.43016785 0.1976876 0.15637405 0.10588081 0.17311507 0.2001611 0.0054255277 0.06414998 0.17065479 0.19669355 0.21535617 0.690296 0.76108164 -0.023170283 0.04316911 0.1690523 0.55986977 0.7053586 0.7896674 0.8183304 0.08484114 -0.047623277 0.5593949 0.6881495 0.7729018 0.80556154 0.15310286 -0.18315715 0.6764377 0.7107438 0.75621504 0.13874517 0.105648346 -0.14539401 -0.12103333 0.31293246 0.14668465 -0.19013587 0.3994042 0.43355554 0.46521226 0.4474182 0.4093393 0.11009744 0.2661128 0.43517473 0.48724318 0.52316386 0.1593706 0.26273748 0.30921 0.43834406 0.54093933 0.5691466 0.29376513 0.57902515 0.5876055 0.49682122 0.59269613 0.58523273 0.535926 0.6082176 0.5861174 0.57378256 0.7443634 0.7683703 0.73402643 0.686569 0.7086563 0.7169886 0.6870481 0.70502305 0.7309574 0.7252804 0.81825054 0.7995907 0.84096766 0.86592126 0.85042953 0.8778401 0.8956681 0.87317336 0.84983295 0.55556494 0.49464887 0.53064144 0.6166496 0.6271062 0.59923357 0.47324467 0.5745636 0.40049714 0.49924472 0.33991978 0.32729086 0.27438062 0.16787077 0.12902154 0.24317956 0.23998107 0.008776765 0.09241723 0.23214707 0.22649917 0.57083803 0.68648446 0.7786703 0.8204477 -0.0040262043 0.26936406 0.8361548 0.006805136 0.14725026 0.81739104 0.82382697 0.7727262 0.018148463 0.3810885 0.6356689 0.42421803 0.41491938 0.20330477 -0.14947073 0.542394 0.32702073 0.25056034 -0.024486784 0.08757338 0.57759804 0.34910136 0.17550984 0.5862064 0.57209665 0.48315054 0.45898896 0.16195238 0.5777703 0.53900266 0.53705055 0.5261945 0.68603647 0.52382237 0.4484527 0.45923358 0.47905517 0.6282577 0.4875078 0.6203915 0.54281735 0.61864793 0.6030007 0.7817501 0.7012161 0.7768264 0.8081696 0.88838816 0.8541361 0.8331459 0.504369 0.53331345 0.5468304 0.5450621 0.43708462 0.49924964 0.5132421 0.5329604 0.48019433 0.44471896 0.43355715 0.4471265 0.45551512 0.42228836 0.31555825 0.44513664 0.06275098 0.2881973 0.23053235 0.2421368 0.23188806 0.21793497 0.095709406 0.18516017 0.23576078 0.6693831 0.7478357 0.8130779 0.07811454 0.8285755 0.18796906 0.15896042 0.81667364 0.24623534 0.75202835 0.23394619 0.1523824 -0.14607641 0.4972458 -0.050217655 -0.021307565 0.26730105 0.5241828 0.2989393 0.32785296 0.54686236 0.54690313 0.4525082 0.38759032 0.25995117 -0.1385918 -0.12515189 0.5354607 0.61453533 0.5350096 0.39413878 -0.26703662 0.53197265 0.6363003 0.63542175 0.58689123 0.54819524 -0.24508998 0.22598138 0.4701244 0.66337556 0.74402654 0.6971594 0.5076555 0.48704883 0.4304924 0.42000994 0.41516113 0.42571074 0.49077463 0.551366 0.60474324 0.6307105 0.6831998 0.8025311 0.7773496 0.76620626 0.48136497 0.53286743 0.5435452 0.506408 0.41496432 0.44600487 0.477808 0.405725 0.4411615 0.34321713 0.48657626 0.29199192 0.5154206 0.48041973 0.42403853 0.15405148 0.17935306 0.15008637 0.5823788 0.70072114 0.10377459 0.77614856 0.19420324 0.76830125 0.23680525 0.6712785 0.14807396 0.24104545 0.27051225 0.46666217 0.6120701 0.4643611 -0.1836456 0.06782802 0.053804107 0.16324908 0.3736968 0.50668746 0.2949956 0.5031319 0.517943 0.5000591 0.6558032 -0.25881875 0.4716456 0.4849602 0.6821364 0.44262683 0.7042452 0.64261353 0.3772683 0.38623375 0.41552362 0.76376736 0.7915671 0.3704379 0.36380816 0.41788882 0.43859953 0.5114369 0.49368742 0.6144599 0.6642243 0.6041558 0.44254208 0.50928414 0.51813406 0.44857854 0.37836367 0.38324913 0.38485736 0.43227756 0.35316068 0.48665127 0.43151835 0.30392963 0.5158275 0.16702774 0.49699396 0.5032238 0.49017498 0.47785282 0.13911423 0.4407956 0.36725593 0.14376824 0.55027306 0.6437905 0.66448045 0.41596687 0.6256723 0.43035114 0.40848523 0.32304627 0.16469586 0.26966193 0.2015395 0.16177815 -0.015331592 -0.06546001 -0.16238692 -0.06677804 -0.36958626 -0.030304879 0.063433096 0.11270188 0.289815 0.46643275 0.20497476 0.47663003 0.4983433 0.44862288 0.47751507 0.45563185 0.4818486 0.46311498 0.49302632 0.49647933 0.65029335 0.45672 0.48918283 0.6613611 0.44298965 0.67666376 0.7027675 -0.17441398 0.37923437 0.41679922 0.7053933 0.7166443 0.68813485 0.30016935 0.33396763 0.35999835 0.38236767 0.37277713 0.4545778 0.48832685 0.48760012 0.5204183 0.55884683 0.55441517 0.5570816 0.5405493 0.5899484 0.38678116 0.4203592 0.44828856 0.34196085 0.34159476 0.37060857 0.3813321 0.47763973 0.20704621 0.48129645 0.4870843 0.46598178 0.45596534 -0.43726477 -0.29316357 0.14283058 0.28508782 0.335912 0.32178134 0.22997694 0.3135774 0.20727852 0.31967044 0.35465348 0.46448535 0.30020928 0.36256617 0.30356717 0.21453002 0.16472793 -0.0018075556 0.07439661 0.32221395 0.14549506 0.2003819 0.23209974 0.013320651 -0.04416071 0.13389735 0.30421156 0.34182394 0.26169795 0.15035276 0.15457289 -0.0067492276 -0.018466339 0.16173539 0.38131326 0.33676028 0.277748 0.031615064 -0.032062124 -0.09643392 0.101065844 0.35876003 0.33265308 0.34084213 0.4458679 0.48488095 -0.047447465 0.44664007 0.36105165 0.4107101 0.46327847 0.5114578 0.57632357 0.40257904 0.45318604 0.51432204 0.41317797 0.4696164 0.5088749 0.5532079 0.57768065 0.61445665 0.4084819 0.46249303 0.52482235 0.5925213 0.5991721 0.64009804 0.5927072 0.37882853 0.38707024 0.47596103 0.5496202 0.5921087 0.63308036 0.6323239 0.60453725 0.61606985 0.34713665 0.4544301 0.42539582 0.4985464 0.5268122 0.5034132 0.50915504 0.5416589 0.5206644 0.5301538 0.35084528 0.31869233 0.312186 0.33376834 0.3299727 0.3172652 0.3780079 0.31944448 0.25904256 0.2863972 -0.30722445 -0.04040377 0.22616297 0.27318156 0.3202243 -0.243287 0.09567362 0.2005292 0.3303496 0.2814769 0.27393785 0.14594404 0.19742772 0.15606329 0.25612682 0.21132761 0.39201438 0.20141016 0.3981455 0.44911292 0.28283334 0.12579475 -0.08690279 0.005815588 0.3277076 0.3915543 0.51137817 0.4617688 0.3443271 0.027838636 -0.040827803 0.3129813 0.488015 0.42823094 -0.012590021 0.10209413 0.09324442 0.49893597 0.45731103 0.42125943 0.342756 0.24059904 0.35548148 0.5431681 0.2686323 0.23814161 0.58003193 0.56487626 0.35535765 0.3131271 0.5803423 0.5698071 0.3553025 0.43667835 0.42461997 0.5702579 0.5261644 0.58388585 0.5442027 0.53642094 0.27951586 0.3140339 0.45267683 0.4343263 0.45288938 0.5031601 0.57269436 0.569648 0.57809234 0.57483363 0.5708523 0.09044871 0.19502975 0.26102796 0.44960263 0.47986 0.190218 0.4281361 0.43510914 0.40934348 0.4018627 0.47984803 0.48848546 0.4863789 0.2384024 0.2970068 0.2535761 0.26112 0.24039446 0.12555912 0.22398841 0.10321871 0.06524344 0.1437878 0.24370785 0.28450274 0.055517234 0.15026194 0.14130165 0.34794948 0.27777758 0.26861066 -0.14630868 0.2674822 0.26946312 -0.009527451 0.05897905 0.23276708 0.1717261 0.36080056 0.36942184 0.3930654 0.523944 0.49590486 0.38677412 0.545376 0.54183304 0.362786 0.53116435 0.47849345 0.3080979 0.22930825 0.26115873 0.21399224 0.44478965 0.27455434 0.3008977 0.05677973 0.24866076 0.3622806 0.3167854 0.4945254 0.4280663 0.19135337 0.2538546 0.44711465 0.4403948 0.5214545 0.46858364 0.49842948 -0.07151716 0.22610855 0.46684742 0.42840302 0.53449905 0.49519753 0.2349694 0.21936238 0.44267604 0.40303063 0.41017365 0.51079804 0.543983 -0.035680316 0.21438766 0.47502178 0.33388454 0.31232366 0.16676822 0.09433801 0.132237 0.024000034 0.14179423 -0.00027398765 0.022511944 0.059763685 0.096526176 0.10410996 0.027374037 0.12504508 0.07794441 -0.15426475 -0.19591278 0.13135943 -0.23773658 0.23987637 0.05189848 0.032041416 0.20413595 -0.11473585 0.16760531 0.2021627 -0.10910128 0.13517585 0.2367461 0.265991 0.27693832 0.35055876 0.35807434 0.5120458 0.46542686 0.36476678 0.5067159 0.4557004 0.36330867 0.45377678 0.3498358 0.29338455 0.19072886 0.038159817 -0.23060063 -0.08738251 0.5032549 0.2405828 0.36523178 0.2722381 -0.050101664 0.07637602 0.08480598 0.12055132 0.15754361 0.52487016 0.49839494 0.40178317 0.22954544 0.09721053 0.23356283 0.5299697 0.48295486 0.45656258 -0.080354355 0.28304237 0.49520147 0.39960754 0.330859 0.3606825 0.48757362 0.1669309 0.4120807 0.38134688 0.3565031 0.53633034 0.93275666 0.8971057 0.9295024 0.92965853 0.8653693 0.82758677 0.3817827 0.3529808 0.8384768 0.82907355 0.8102412 0.74908006 -0.1019215 0.102897204 0.22647777 0.6215693 0.6564616 0.6586776 0.2037668 0.06697528 -0.022517487 0.019172989 -0.13260373 -0.0755803 -0.015269995 0.06734485 0.27641273 0.32372603 0.15117976 -0.18139178 0.2536518 0.3306636 0.30440295 0.19995728 0.21091239 0.26732904 0.21678147 0.1596108 0.18909316 0.13874331 0.030149015 0.10637604 0.050478004 0.119043335 0.18581587 0.035787586 0.06702274 0.24213803 0.22890763 0.24873772 0.27869707 0.30789602 0.302368 0.32889467 0.3183235 0.35513365 0.25814992 0.35337386 0.52441514 0.29757142 0.58344084 0.5163961 0.19847372 0.58223695 0.57190615 0.14319882 0.21216455 0.15326075 0.030632347 0.14156374 0.074380346 0.5682621 0.52672565 0.16901527 0.16429037 0.29486263 0.33797243 0.3436848 0.16973706 0.5607226 0.5486512 0.23703001 0.19212699 0.26575333 0.5570183 0.320238 0.11937982 0.39466804 0.37185752 0.5120598 0.39139122 0.2615813 0.4664557 0.44148034 0.3923083 0.34623587 0.3189276 0.35449332 0.49164528 0.5228663 0.49632183 0.85629165 0.40694475 0.43248457 0.43118232 0.4230759 0.8601441 0.8986125 0.8825338 0.85228515 0.3506487 0.41194707 0.44638038 0.43539703 0.41686147 0.3702557 0.7938762 0.8497512 0.74761 0.32552984 0.34530273 0.32375273 0.30114195 0.66596466 0.6537864 0.603188 -0.057757966 -0.24646908 -0.07961255 0.24618775 0.055267893 0.25578508 0.32847607 0.36999485 0.48226547 0.49670386 0.52344215 0.59299314 0.5587804 0.2456075 0.16350494 0.0573685 0.32059395 0.35178977 0.28366765 0.3520149 0.41430664 0.42116177 0.48648995 0.2622434 0.19299656 0.17049044 0.25528508 0.2271012 0.16126227 0.19357254 0.20142369 0.05953999 0.15583543 0.119198255 0.14662366 0.04167279 0.026041364 0.190282 -0.021365859 -0.07746337 0.21092083 0.23437853 0.14924835 0.27566773 0.3253439 0.20644832 0.3382349 0.13796747 0.3217865 0.54065037 0.4251597 0.253479 0.5860892 0.5725764 -0.08208471 0.084611654 0.59686875 0.19713734 0.017997995 0.13103262 0.08502586 0.5879361 0.24595186 0.21537557 0.34295908 0.34003666 0.20102662 0.2104303 0.23344943 0.577802 -0.03178484 0.23600116 0.18666598 0.10514918 0.10326347 0.32459575 0.5731158 0.58166325 0.18229811 0.42092842 0.56557906 0.5239684 0.31893405 0.41991377 0.47957116 0.46342254 0.4583736 0.45010197 0.39930338 0.3706287 0.3931276 0.40316716 0.3876515 0.447259 0.50493336 0.49938005 0.38600755 0.4072752 0.3710911 0.3809204 0.34648407 0.35836473 0.40101862 0.3743865 0.40001285 0.3988036 0.6172343 0.73261154 0.8042423 0.8275483 0.7999744 0.17255545 0.11697508 0.20940013 0.514656 0.6564145 0.563502 0.1389911 0.10283312 0.063177004 0.1799334 0.28339908 0.09473139 0.20781945 0.2507097 0.32768747 0.5378492 0.49278483 0.0066514537 0.020143013 -0.021907616 0.06911194 0.17903885 0.48185152 0.4912828 0.4559726 0.26068264 0.25317878 0.06987728 -0.029182777 0.3837416 0.3725713 0.4375578 0.28508782 0.2710653 -0.005127264 0.17934787 0.25148547 0.31019086 0.2563557 0.27351 0.22335061 0.18397038 -0.06785189 0.1891851 0.28865847 0.2307463 0.25243127 0.30373478 0.25486138 0.3044397 0.3009776 0.038114488 0.30129275 0.2129828 0.5131169 0.1520325 0.20679407 0.58803576 0.57588655 -0.061283313 0.59483683 0.5866233 0.26002866 0.5875412 0.57332903 0.33486378 0.3226962 0.29344738 0.13343182 0.24804877 0.5917022 0.58633167 0.040866576 0.039069295 0.184471 0.09497663 0.1110037 0.35204542 0.3237821 0.59749115 0.15305603 0.20626593 0.3493774 0.42694747 0.3953936 0.37389624 0.38908517 0.57939196 0.5416646 0.28184354 0.46382123 0.41555166 0.42259187 0.41347826 0.38493663 0.36046526 0.40334803 0.335894 0.37254414 0.39549088 0.41886535 0.41592383 0.46095932 0.5128132 0.51747197 0.20036817 0.24800451 0.3287071 0.47387397 0.49292403 0.49883217 0.23371667 0.18898684 0.22879833 0.3273306 0.44027904 0.4802079 0.48636895 0.24489026 0.38864958 0.42889535 0.111300185 0.27616745 0.2869578 0.157745 0.27040437 0.24396428 0.571336 0.62876904 0.657543 0.6788279 0.26378676 0.18190613 0.2102784 0.25441363 0.24344215 0.5237046 0.24549374 0.22269127 0.16006044 0.1448441 0.10896815 0.3787795 0.4077435 0.15464744 0.21201503 0.16196942 0.4052381 0.27926293 0.18116468 0.2962225 0.28380004 -0.030918255 0.052952368 0.28228876 -0.0779499 0.20023125 0.20800781 -0.2269476 -0.14735128 0.25472558 -0.2518465 0.33629787 -0.24476136 0.34272993 0.31676894 -0.34155732 0.20425487 0.22070457 0.26559404 0.29158175 0.2824192 0.13638419 0.12705748 0.03352852 0.5565724 0.5035312 0.14907011 -0.08739738 -0.11613272 0.08074654 0.5616263 0.50490665 0.26869103 0.022769995 0.10289426 0.16894874 0.54405314 0.4160632 0.33026814 0.34028682 0.30321118 0.14315315 0.006511964 0.0010211766 -0.036639567 0.55266315 0.48573238 0.15563363 0.17166522 0.21121657 0.25680995 0.5603503 0.5229208 0.24135354 0.3196785 0.3701193 0.3310632 0.3144855 0.3521697 0.32837784 0.40538022 0.42397064 0.38348058 0.61564994 0.6546226 0.6697794 0.50325614 0.58986837 0.620139 0.43130195 0.5346753 0.48410812 0.21869466 0.24500182 0.427567 0.2958877 0.25969854 0.20401803 0.19690701 0.3029191 0.44918522 0.5063865 0.52783567 0.30571806 0.31182897 0.2650283 0.21658932 0.5151825 0.3107331 0.30466732 0.26446894 0.2006731 0.479805 0.24379945 0.26733166 0.21855822 0.17837687 0.4150029 0.42120963 0.2088559 0.21377632 0.120919704 0.27232453 0.30189517 0.4877284 0.5310396 0.583426 0.09768683 -0.068418995 0.02836585 0.17175838 0.5720443 0.6471746 0.66932344 0.30710876 0.22649473 0.20447251 0.14834033 0.6095599 0.6141228 0.31161308 0.32141125 0.089637466 0.48524013 0.53553754 0.081983 -0.0990621 0.44218373 0.10197069 0.0009777695 0.230051 0.08954229 0.28500086 0.293998 0.251025 0.17932183 0.051501334 0.30933326 0.01624134 0.2196758 0.30071926 0.03382602 0.113578446 0.2546631 -0.08905307 0.055790544 0.13743031 0.22882277 0.3495788 0.3347142 0.33577466 -0.27872404 0.26793894 0.26228315 0.18533407 0.3070306 0.36710298 0.3499043 0.065813124 0.054866068 0.4181474 0.021784414 -0.1316962 0.16078816 0.08943646 0.14827363 0.22483984 0.075804204 0.1238147 0.2567374 0.13836598 0.16663036 0.043489777 -0.017447408 -0.08559599 0.18987659 0.16109124 0.45372283 0.28154844 0.09455666 -0.014060147 0.026057899 0.16748556 0.22772694 0.32819098 0.35395765 0.35899216 0.43185213 0.4222129 0.40838814 0.67906046 0.67453146 0.5095027 0.6084348 0.66796744 0.6756755 0.64545524 0.47398385 0.53566504 0.6122111 0.34059528 0.23372939 0.2637677 0.41053176 0.38211367 0.4915316 0.20912232 0.271627 0.52925223 0.2784171 0.5678038 0.28292257 0.43998224 0.4504019 0.45274708 0.2053752 0.3961346 0.40218234 0.41718888 0.40305185 0.37125432 0.53490025 0.19053203 0.07219739 0.33898383 0.4633733 0.47293746 0.56247747 0.64143157 0.7088386 0.10361069 0.06512185 0.7078196 0.2108095 0.25866753 -0.08623217 -0.11207527 0.19417614 0.2656505 -0.124687664 -0.3728957 0.5418898 -0.17256677 0.0950477 0.23325226 0.3911151 0.46997607 0.20957711 0.070699915 -0.10475244 -0.105032615 0.004017785 0.05661887 0.031734806 0.06066776 0.2801478 0.12604795 0.1704853 0.49166048 0.28453916 0.3981713 0.57298845 0.28650767 0.46448243 0.5915109 0.13645604 0.10511966 0.1809707 0.50769025 0.58866405 0.11168985 0.334827 0.3240098 0.014117707 0.3297351 -0.120958544 0.2208216 0.2622435 0.23390831 0.10843288 0.23286687 0.21591198 0.09121257 0.24692164 0.3297025 0.038049717 0.14938453 0.39808863 0.43898576 -0.06816433 -0.13097489 0.30679512 0.35426736 0.44474638 0.41344512 0.005548775 -0.043309808 0.30088094 0.05529509 0.09711998 0.053040892 0.07421517 0.06366289 0.1877729 0.0777822 0.1256563 0.41075617 0.12416755 0.06978751 0.11479172 0.021404676 -0.08252354 -0.14328972 -0.056332394 -0.039580077 0.19531623 0.13278368 0.16441683 0.1564883 0.35459483 0.3900313 0.27318123 0.56817734 0.4069006 0.51751417 0.4190448 0.47691023 0.5489335 0.4742117 0.4785928 0.44901824 0.6131664 0.6135731 0.62375975 0.6817736 0.65787286 0.6038648 0.57643807 0.54834193 0.5927714 0.5474409 0.51015437 0.49132538 0.43984076 0.33897346 0.26649344 0.23331465 0.14681944 0.32171345 0.35751945 0.14875254 0.5490509 0.14224789 0.5284895 0.5040743 0.088177755 0.42864853 0.43355864 0.47114474 0.48799723 0.37041217 0.10696829 0.121176824 0.41993535 0.52949667 0.62993646 0.66979444 0.31545419 0.14262685 0.10904213 -0.19736034 -0.03184065 0.15914139 0.3724677 0.7084695 0.7627469 0.12939428 -0.106189676 0.002788538 0.7840645 0.10483237 -0.30997127 0.74258083 -0.1811334 -0.3749985 -0.41414714 0.5043255 0.62015975 0.27592015 0.23442632 0.13871911 0.06174904 -0.3208968 0.31105053 0.4558754 0.25158125 0.23922357 0.012928121 0.19925655 0.26397938 0.4081701 0.17875668 0.59107506 0.62053955 0.6824071 0.61473835 0.68427324 0.057211548 0.4642724 0.5532348 -0.0011537373 -0.18628402 0.19735071 0.3166458 -0.11704703 0.32711896 -0.055374518 0.32827732 0.3865733 0.061784115 0.427724 0.46147487 0.35279316 0.37693107 0.45409867 0.3864432 0.40512583 0.44652152 -0.052913055 -0.030024692 -0.059608594 0.4531652 0.37417668 0.39875525 0.13185918 0.03523262 0.48702812 -0.013887003 -0.013500869 -0.0070840865 0.0654386 0.08942265 0.46429724 0.5153005 0.4376722 0.5536078 0.09654596 0.0401861 0.06286132 -0.081886895 -0.071839005 -0.06325101 0.12276366 0.37685266 0.40834185 0.27919543 -0.0819052 0.1775971 -0.03594495 -0.08313153 0.41513065 0.51562154 0.676332 0.4927445 0.5254622 0.8009517 0.7576558 0.633595 0.5483884 0.6698023 0.62946355 0.5602753 0.54957014 0.52748215 0.6533474 0.6623926 0.71353126 0.6540328 0.59474206 0.5742494 0.6118592 0.5139251 0.50826466 0.5738908 0.37103137 0.39869142 0.14401563 0.10713632 0.21188343 0.07212448 0.08578723 0.43481588 0.61696815 0.600301 0.55381984 0.53641355 0.051370893 0.061875895 0.5312278 0.5192132 0.47194642 0.4201018 0.15599476 0.46261042 0.47149938 0.46220565 0.44065168 0.19874144 0.54964924 0.7706852 0.7753189 0.42561275 0.39663118 0.36710966 -0.25971958 -0.46875525 -0.17182986 0.79962146 0.3062081 0.1526241 -0.44523406 0.8236116 0.8188646 -0.029955246 0.072846 -0.45657757 0.7914282 0.19458826 0.15181331 0.050068937 -0.3522476 0.7015525 0.25997984 0.24208818 0.31275624 0.5233079 0.2841559 0.2896255 0.21194234 0.2623031 -0.107895315 0.055154786 0.14930713 0.48782533 0.13379371 0.67552054 0.7328802 0.67302936 0.7133764 0.62569344 0.13127415 0.2405397 -0.11898483 -0.05250118 0.40066683 0.5322008 -0.29288787 0.4175893 0.4942765 -0.24941781 0.43841577 0.3733195 0.22158769 -0.048963934 0.3229217 0.47008705 0.43345928 0.3979169 0.402