# vtk DataFile Version 2.0
Really cool data
ASCII
DATASET POLYDATA
POINTS 12753 float
-78.59035 24.983894 97.73974
-78.61859 25.129677 98.14233
-78.63279 25.53815 97.61066
-78.58985 25.405708 98.331474
-78.592125 25.985222 97.758156
-78.59434 25.93322 98.13386
-77.68937 23.844532 96.70005
-78.043365 24.237259 97.45255
-77.942116 24.190945 98.303635
-77.688995 24.67477 95.81414
-78.22222 24.795038 96.810005
-78.41518 24.72113 97.54206
-78.38407 24.820583 98.361664
-78.10311 25.095417 98.90749
-77.861496 25.375734 95.91332
-78.268906 25.455793 96.64977
-78.50639 25.55424 97.22072
-78.499306 25.472544 98.570625
-78.13569 25.43516 98.910835
-77.75038 26.018372 95.896194
-78.21053 26.22629 96.81979
-78.38566 26.424774 97.57514
-78.39521 26.235052 98.25745
-77.951096 26.355436 98.80417
-77.79454 27.084341 96.78928
-77.99519 27.078846 97.51639
-77.88406 27.095613 98.098434
-77.60866 32.128685 101.03314
-77.70836 32.09924 101.52123
-77.704124 32.72581 100.90496
-77.81442 32.631546 101.51219
-77.71135 32.5459 102.07913
-77.66383 33.182564 100.98708
-77.73325 33.22359 101.4444
-77.70767 33.154797 101.95693
-76.6263 17.50304 102.71431
-76.65379 17.419455 103.46972
-76.6114 17.591213 104.06419
-76.64979 18.14093 103.28022
-76.64502 20.070162 99.5974
-76.57759 19.901966 100.155426
-76.81825 20.792868 99.00415
-76.857994 20.507998 99.47691
-76.7541 20.742193 100.4066
-76.83631 21.501446 98.82044
-76.95785 21.573133 99.60695
-76.74295 21.4959 100.33375
-77.08932 23.2299 96.29518
-76.88077 23.10114 97.32098
-76.740295 22.306602 98.31519
-76.81448 21.910656 99.832664
-77.36265 23.973696 95.74343
-77.44329 23.733885 96.251915
-77.26024 23.853638 98.18377
-77.17294 24.47928 95.16591
-77.456726 24.815187 95.43257
-77.220566 25.313974 95.16653
-77.521484 25.657204 95.523
-77.04541 25.82182 95.14674
-77.28494 26.36561 95.72533
-77.23463 26.131138 99.2242
-77.18458 27.08384 96.195595
-77.45863 27.37316 96.63399
-77.44403 27.283655 98.35173
-76.59784 27.635292 100.10892
-77.07588 27.826096 96.903854
-77.08096 28.03587 97.35311
-76.75874 28.670631 99.54523
-76.629486 29.5781 99.49772
-76.68433 29.444622 100.31611
-76.74201 31.146744 101.23318
-76.82433 30.771456 102.108246
-77.41728 31.740513 101.446365
-77.30947 31.764484 102.31209
-76.69989 31.420992 103.11322
-77.0677 32.684452 99.99176
-77.49881 32.492767 100.63871
-77.439026 32.62783 102.499954
-77.082726 32.541836 102.90819
-76.924194 33.416813 99.96277
-77.38442 33.46804 100.69665
-77.55742 33.558823 101.44551
-77.30449 33.437557 102.3037
-77.03908 33.191467 102.765396
-76.80754 33.817993 100.0481
-77.1165 33.832237 100.74311
-77.08967 33.96051 101.39903
-77.00436 33.877575 102.1149
-75.77551 16.013226 101.49992
-75.88827 15.995653 102.35011
-75.746765 15.821199 103.432724
-75.9009 15.841233 105.7407
-75.84595 15.811173 106.37429
-75.69887 16.362476 100.93627
-76.15648 16.687151 101.45128
-76.24103 16.584366 102.38986
-76.34641 16.848244 103.65116
-76.17003 16.792572 104.26296
-76.26044 16.687153 105.40411
-76.123215 16.594923 106.37998
-75.83506 16.907074 107.362465
-75.96875 18.053595 99.82054
-75.91857 17.381794 100.51118
-76.32857 17.40731 101.70647
-76.45287 17.331114 102.10999
-76.51546 17.199402 103.64358
-76.5132 17.505814 104.11903
-76.29199 17.420198 105.39566
-76.16788 17.576885 106.4901
-75.92312 17.363247 107.25242
-75.87496 18.896196 99.11986
-75.95157 18.491562 99.52764
-76.25253 18.71532 100.42878
-76.33654 18.282951 101.72095
-76.31663 18.655903 102.49872
-76.37872 18.340942 104.71521
-76.281525 18.407558 105.552475
-76.18179 18.3967 106.23997
-75.82275 18.147396 107.32997
-76.22897 19.94952 98.674065
-76.37627 19.631714 99.7835
-76.32976 19.598707 100.50058
-76.31407 19.996954 100.82193
-76.27373 18.841185 102.059296
-76.20877 18.943409 104.52019
-76.06721 19.277504 105.348206
-75.85261 19.517677 106.360374
-75.60465 19.243155 106.94978
-76.15329 20.52467 98.15125
-76.500656 20.706858 98.42501
-75.97914 20.31698 101.50478
-75.75544 20.204134 101.992874
-75.704216 20.465488 105.61196
-75.78318 20.225908 106.23982
-75.74829 21.71776 97.12989
-76.05455 21.197018 97.547134
-76.45986 21.555912 98.34272
-76.38272 21.082869 100.96526
-75.594955 21.082373 105.817116
-75.60321 22.85452 88.51614
-75.600365 22.966974 89.14524
-76.29792 22.75491 96.698814
-76.47222 22.340605 97.87451
-75.57986 23.517382 88.05282
-75.66899 23.436172 88.48804
-75.66794 23.492899 89.20379
-76.499504 23.937117 95.11663
-76.71962 23.376213 95.754326
-76.03454 23.073603 100.756645
-75.62713 23.815369 108.63863
-75.59534 23.813322 109.81067
-75.698746 23.805185 110.01687
-75.60197 24.117018 88.74232
-75.601746 24.075079 89.45809
-76.31749 24.17435 99.538216
-75.69957 24.932522 108.03652
-75.82431 24.599915 108.52331
-75.99903 24.73678 109.533905
-75.95149 24.822931 110.555115
-75.725296 24.736553 111.04895
-76.64597 25.445755 94.78403
-75.66157 24.978119 108.04537
-75.84414 25.363094 108.80517
-76.10379 25.522764 109.654396
-76.10124 25.554714 110.36325
-75.75998 25.576302 111.28427
-76.425995 26.139124 95.096535
-76.65211 26.18921 99.149605
-75.70662 27.262638 100.731255
-75.81184 25.859362 108.92098
-75.97048 26.289621 109.715614
-75.96348 26.339437 110.39846
-75.78541 26.343025 111.01578
-76.30111 27.366787 95.99802
-76.30262 27.56513 100.06652
-75.79487 27.660007 101.11587
-75.71568 26.83071 109.892685
-75.77589 26.739601 110.505196
-76.498344 27.96246 96.766045
-76.369865 28.439932 97.75085
-76.529526 28.7901 100.737274
-75.95614 28.495762 101.3453
-76.04166 29.160372 97.93971
-76.45111 29.023962 101.03798
-76.04673 29.756126 101.95892
-75.610535 29.462297 103.54987
-75.68435 30.003534 104.206566
-76.041145 30.050097 98.14435
-76.15966 30.391169 98.93773
-76.13907 30.558918 99.21441
-76.28611 30.496819 103.523895
-76.04711 30.572758 103.9657
-76.478035 31.947638 99.642105
-76.4253 31.117634 103.602844
-75.93013 31.703327 104.2502
-76.24702 32.76779 99.29953
-76.64724 32.697823 99.592285
-76.04506 32.49292 103.65729
-76.16763 32.28845 103.8875
-76.158485 33.4811 99.24967
-76.445786 33.479404 99.45955
-76.25468 33.352776 103.22199
-76.207344 34.07641 99.782326
-76.30537 34.324036 100.42092
-76.48577 34.331387 101.30504
-76.34283 34.104492 102.32519
-75.966934 34.020905 102.98365
-75.972466 34.523872 100.52263
-75.115944 15.17476 102.08611
-75.093376 14.999732 102.89913
-74.940575 14.857641 103.204636
-74.744644 14.925123 104.263885
-75.29027 15.212699 105.78088
-75.021866 15.238523 106.387856
-74.78538 16.088976 100.21067
-75.23416 15.889653 100.88851
-75.3351 15.573873 101.56262
-75.501595 15.460891 102.771614
-75.47732 15.788613 103.78039
-75.507126 15.463009 105.42088
-75.392654 15.73662 107.12136
-74.84654 16.043615 108.59279
-75.165565 16.862549 99.92172
-75.49307 16.492247 100.4869
-75.56317 16.359577 107.548775
-75.32759 16.606947 108.15058
-74.63556 16.271809 109.079315
-75.4571 17.984653 99.1625
-75.36447 17.436777 108.26123
-74.80769 17.766464 108.94182
-75.04393 18.512405 98.54313
-75.29207 18.36234 108.13586
-74.82682 18.173332 108.77129
-75.4869 19.609024 98.19944
-75.687485 19.420305 98.39598
-75.444756 19.553337 107.31547
-75.02004 19.133205 108.17988
-75.07444 20.948486 96.98483
-75.46043 19.991081 102.55328
-75.4353 19.842234 103.49214
-75.43274 20.091366 104.19142
-75.47722 20.729164 106.75916
-75.35046 20.73263 106.999245
-74.564575 20.97816 108.24267
-74.914085 22.282066 87.904045
-75.17602 22.180538 88.48762
-75.00443 22.059458 89.32725
-74.73648 21.887333 90.71835
-74.85529 22.127222 95.94761
-74.76311 21.659227 96.341415
-75.45378 20.98823 102.03423
-74.81992 21.372202 103.98488
-75.23157 20.96216 104.60219
-75.3567 21.42766 105.45225
-75.30018 21.507326 106.27211
-75.13185 21.060791 107.24087
-74.7948 23.070415 87.316086
-75.2244 22.713728 87.87948
-75.42344 22.53074 88.41961
-75.40316 22.520803 89.29813
-75.27293 22.846096 90.37675
-74.83254 22.585382 91.40838
-74.6009 22.678207 92.16814
-75.67764 23.130857 95.57514
-75.423134 22.457232 101.32624
-75.20671 22.577246 101.68117
-74.74457 22.740026 104.239136
-74.68013 21.939306 107.02161
-74.782 22.48257 108.4147
-74.955086 22.701267 109.40755
-74.771805 22.654066 110.30497
-74.69847 23.188704 111.35809
-74.9423 23.584877 87.266106
-75.333 23.488718 87.67403
-75.4497 23.499622 90.11315
-75.23912 23.456553 94.88572
-75.14966 23.385805 101.13048
-74.79332 23.854177 102.893425
-74.789024 23.762276 104.52404
-74.845436 23.715395 107.22275
-74.95444 23.587833 107.393036
-75.473465 23.67068 108.43525
-75.5407 23.605907 109.38813
-75.367775 23.699871 110.55544
-74.98604 23.747442 111.34822
-74.907 24.144339 87.2398
-75.17109 24.191422 87.581955
-75.45157 24.460005 88.45904
-75.45921 24.577438 89.21704
-75.39599 24.363056 90.27824
-75.750565 24.42142 94.63354
-75.59532 24.09108 100.58663
-74.66746 24.38949 101.39698
-74.92177 24.604067 102.71986
-75.2198 24.779718 103.38074
-75.12235 24.453453 104.20892
-75.46727 24.53912 111.38073
-75.02241 24.819715 112.14255
-74.987305 24.822088 87.88916
-75.15075 24.825533 88.231995
-75.016846 25.137959 89.3411
-74.97695 25.105003 90.493225
-75.03074 24.931171 91.03038
-75.15916 24.95045 94.37664
-75.45893 25.29194 94.63983
-75.17978 25.782187 100.43084
-75.3221 25.732206 103.9421
-75.22451 25.588976 104.28813
-74.89875 25.426031 106.383484
-74.98648 25.949326 107.24279
-75.51198 25.283466 111.61416
-74.990005 25.506296 112.330635
-74.705444 25.867373 112.62962
-75.6158 25.972597 94.89839
-75.15422 26.073929 104.86531
-75.08914 26.763542 105.68312
-75.079834 26.452787 106.45865
-75.187035 26.061558 107.73127
-75.364105 26.299742 108.54118
-75.428764 26.392365 111.39272
-75.021866 26.16837 112.10352
-75.359566 27.093328 95.931656
-75.445885 27.73175 101.46539
-75.052315 27.479523 102.259964
-75.21871 27.351404 104.414055
-74.87933 27.571695 106.2463
-75.42948 26.96717 109.73825
-75.41642 26.94903 110.506615
-75.16387 26.748394 111.34479
-74.763916 26.6626 112.01962
-74.58824 29.12097 88.10382
-74.65367 28.96986 88.91369
-74.64702 29.092098 89.69192
-75.24681 28.526257 96.94453
[...]
POINT_DATA 12753
SCALARS features_00 float 1
LOOKUP_TABLE default
0.6156589 0.62116194 0.628865 0.62429845 0.6348678 0.6343601 0.47427294 0.54113656 0.55011845 0.57243097 0.6002914 0.59971416 0.6028562 0.5741188 0.5855551 0.6196004 0.62780833 0.6154731 0.58031 0.5698122 0.62368184 0.63887775 0.6371472 0.61065775 0.5709367 0.61918736 0.6238207 0.68632203 0.6858384 0.7374397 0.7367513 0.70887035 0.7618576 0.7659147 0.7516631 0.357088 0.33510488 0.3082627 0.3057019 0.3903897 0.3634529 0.38031033 0.40152076 0.37404317 0.34382853 0.41066796 0.38421094 0.3589267 0.24145463 0.19856721 0.40874666 0.514029 0.46830523 0.439348 0.53850555 0.5619935 0.54378164 0.55905795 0.51332456 0.5201826 0.4120667 0.47983947 0.50240386 0.565405 0.11154759 0.3958393 0.3781143 0.307285 0.30263257 0.25307652 0.42707965 0.3159377 0.62162006 0.57705396 0.41987437 0.65452737 0.7039894 0.67124856 0.58283585 0.72489226 0.7649766 0.77434003 0.72818506 0.64600754 0.75646424 0.77867043 0.77213204 0.7283243 0.3948848 0.39958286 0.33809423 0.31447452 0.33758688 0.35517636 0.38476008 0.39270186 0.33519113 0.30670726 0.33490154 0.3868988 0.35392165 0.27849987 0.30630046 0.35746723 0.3678307 0.33435762 0.3107347 0.31084913 0.33760154 0.33917186 0.28976488 0.2877105 0.2607367 0.2819553 0.25539932 0.2790327 0.26626235 0.27137294 0.28893363 0.3367282 0.3632432 0.3042626 0.29124162 0.21453567 0.24289136 0.21957129 0.21260443 0.22030598 0.2808459 0.32408485 0.1800535 0.076422505 0.1849598 0.19430095 0.10716709 0.18061963 0.2735674 0.28343058 0.1645286 0.7760104 0.7070496 0.18462305 0.1558148 0.7996123 0.76182663 0.6895871 0.47091025 0.37930924 0.042726293 0.3819649 0.4351254 0.4437117 0.71371603 0.6495772 0.0965624 0.30486852 0.3932247 0.51541036 0.58863056 0.58158123 0.50143224 0.30269772 0.4267274 0.57712543 0.65136886 0.67333734 0.42890432 0.21610054 0.03569766 0.46053123 0.6059945 0.6647589 0.67846036 0.31636697 0.09850582 0.048303258 0.60850966 0.65424883 0.25684953 0.155639 0.17139548 0.05937911 0.073902845 0.13138221 0.041231744 0.115931466 0.22026488 0.0903361 0.11960455 0.11903377 0.27700263 0.27434015 0.40733093 0.34530428 0.31266007 0.56305146 0.5922458 0.41177917 0.3868177 0.6824765 0.6978955 0.531994 0.747756 0.75333285 0.7264495 0.6529763 0.5709513 0.71714383 0.37733155 0.34733945 0.31687227 0.1692797 0.17296693 0.17757708 0.29310918 0.34749258 0.3827011 0.3719617 0.30322003 0.21772982 0.308633 0.24824813 0.2592972 0.3120802 0.3421077 0.28797704 0.24866381 0.2221934 0.26851666 0.19053352 0.14980178 0.23695861 0.17836872 0.1975677 0.23931117 0.1914343 0.15885171 0.059398636 -0.03814961 0.004444398 0.08106654 0.17073558 0.16012846 0.010607243 0.8139345 0.77159107 0.6578566 0.44146824 0.002751158 -0.003456628 0.03723268 -0.06028598 0.078766346 0.12149748 0.14819089 0.13439384 0.8518963 0.8269379 0.7885368 0.6881626 0.56854963 0.37079856 0.27882153 0.23682548 0.03856161 -0.09772946 -0.09712325 0.044877276 0.12763135 0.27974653 0.29395667 0.37526032 0.8598955 0.8319936 0.61043876 0.23589261 -0.18317147 -0.049063303 0.044722892 0.14173315 0.17417324 0.35213757 0.39831507 0.42488766 0.44059074 0.8596203 0.82903266 0.7307513 0.6464154 0.5795732 0.44271183 -0.15154397 -0.32059002 -0.0021171756 0.082540125 0.08958972 0.55479985 0.6185116 0.7710167 0.73209333 0.5867491 0.46063882 0.3971701 0.25883558 0.33197233 -0.2198183 0.058679216 0.059558857 0.019164503 0.14110836 0.6566412 0.6666094 0.65882266 0.2993404 0.015857007 0.04375553 0.044257898 0.23868462 0.40513468 0.6705972 0.6606535 0.14521036 0.0106637245 -0.09265216 0.029021561 0.12666504 0.5676445 0.6171572 0.640385 0.628543 0.620929 0.5989194 0.51933 0.0111284405 -0.061063185 -0.03840148 0.070190206 0.11498555 0.12726036 0.62536 0.6390314 0.5921415 0.47147816 0.045215987 0.122416094 0.6022301 0.6202844 0.5570432 0.47159818 0.16819745 0.09366828 0.0921169 0.17377737 0.569685 0.5695024 0.5252718 0.46692294 0.13480756 0.11138443 0.24202761 0.20478366 0.50190395 0.28753713 0.19942197 0.66792667 0.36190793 0.7032308 0.6982668 0.68138623 0.49786127 0.41758943 0.68867636 0.63682944 0.5027215 0.3232329 0.070624664 0.079198435 0.30511826 0.35270888 0.32337406 0.26616856 0.05367749 0.13349913 0.033475243 0.12452128 0.21387276 0.3175347 0.44129428 0.24505046 0.29453167 0.30170053 0.46935403 0.18399642 0.22227855 0.31519544 0.3791052 0.09065765 0.14887737 0.21669066 0.3224941 0.09386347 0.0856451 0.06754125 -0.0083767045 0.41927403 0.3383009 0.28240526 -0.09793339 -0.021896377 0.78928566 0.7200026 0.5928909 0.43205208 0.3532346 0.25712052 0.1824098 0.005291667 0.12741964 0.17638293 0.8302178 0.822652 0.15973027 -0.062123522 0.2985487 0.2736055 0.3557626 0.8609328 0.07711895 -0.17889349 0.3942384 0.47662437 0.8632078 -0.023404151 -0.11097604 0.13604788 0.020349223 0.5881931 0.609434 0.82327044 0.5816649 0.18431059 0.03856814 -0.31183475 0.65966666 0.637733 0.6413959 0.5122966 -0.08909445 -0.010504266 0.17808649 0.2504166 0.45555365 0.5287761 0.60599446 0.56297743 0.5940862 0.5725676 0.4347698 -0.0991629 -0.14509007 0.09276477 0.049044803 0.04199867 0.561921 0.6059983 0.26042253 -0.0019108653 -0.010039143 0.03733133 0.02410464 0.5596979 0.57413876 0.41088054 0.28225178 0.15184972 -0.028081387 0.13720351 0.1568693 -0.024425859 -0.0037384853 0.47868246 0.5033213 0.49503842 0.4063329 0.32554686 0.23910853 0.25921682 0.265128 0.18698148 0.0074660582 0.38675606 0.4264787 0.45302346 0.3864678 0.2899534 0.29081565 0.33770925 0.58147174 0.47717342 0.61047244 0.5651508 0.544973 0.12656996 0.1474241 0.15573913 0.2701799 0.30302298 0.23761931 -0.0036583617 0.10885041 0.100973 0.050304413 0.044043384 0.3183863 0.44745976 0.5010829 0.29955614 0.031737655 0.13652034 0.48530746 0.53013206 0.54480827 0.17984867 0.24383712 0.49240762 0.5177896 0.5361854 0.11393145 0.17657506 0.42339838 0.44619867 0.5090226 0.077464364 0.30350798 0.42096543 -0.00013239868 -0.036972515 -0.08394025 0.24450026 -0.07930898 -0.08513982 -0.08282571 -0.12708387 0.41376424 0.31325787 0.29399434 0.10445546 -0.044151105 -0.14423215 -0.06447294 0.66868275 0.5868269 -0.10271656 0.24378133 0.27636927 0.7414857 0.6698238 0.36862144 0.77833915 0.4129634 0.4261941 0.82448876 0.7433871 0.5428684 0.050486438 0.63999605 0.35101306 0.4182557 0.32265794 -0.33345047 -0.34472305 -0.2989345 0.59536767 0.6176097 0.49333912 0.49735078 0.28589243 -0.24218252 -0.30503577 0.32197106 0.3890201 0.57965654 0.46671402 0.52607906 0.20587583 -0.0018701255 -0.14869936 -0.028078973 -0.018702224 0.45678887 0.513023 0.04986924 -0.09421227 -0.10073903 0.4901043 -0.0014912188 -0.06618109 0.4253335 0.41275924 0.3241523 -0.037038185 0.04160208 0.31315488 0.33349603 0.24601734 0.19956346 0.15443741 0.29290506 0.4159207 0.43751568 0.09561202 -0.0017326102 0.12289242 0.19039574 0.23299527 0.24485523 0.24043949 0.25192064 0.21303704 0.2594174 0.18545508 0.3049605 0.33595306 0.4617166 0.23648848 0.1835267 0.25133204 0.23367527 0.19818188 0.17693467 0.21068883 0.27584076 0.27463105 0.25048542 0.23450272 0.26863682 0.2850365 0.6244248 0.68159974 0.68138283 0.6433 0.62774134 0.71208596 0.6889656 0.6437917 0.17632034 0.678002 0.7169144 0.69431293 0.6464428 0.38693243 0.37264273 0.29663107 0.21110432 0.22669959 0.17921 0.6576836 0.30458987 0.10909922 0.07784057 0.18045114 0.07931144 0.5193714 0.5308106 -0.03003911 0.16023082 0.5472343 0.118033975 0.54288745 0.03228101 0.45065165 0.5014496 0.08977035 -0.057054803 0.36494386 0.39745545 0.071676336 0.0739491 -0.036202997 0.1964556 -0.045252725 0.011540197 -0.0039103855 0.025761127 0.2922889 0.20424138 0.20044571 0.027662978 -0.07029364 0.54939675 0.4091704 0.2302746 0.2410756 0.58991057 0.27063662 0.6154014 0.49508804 0.37868667 0.7500553 0.4127821 0.63603294 0.29640615 0.53454185 0.42537504 0.44253826 -0.09103657 0.040018827 0.08848072 0.42405164 0.06250134 0.4105153 0.30162507 0.057911262 0.2657477 0.10219479 0.1536652 0.14223176 0.1468547 0.0038599968 0.35613716 0.38282806 0.39031672 0.23032841 -0.21385309 -0.19070996 0.11602261 0.12906775 0.24194683 0.12934162 0.15551512 0.2775952 -0.058070622 0.15202609 0.1735162 0.14360148 0.13740116 0.12972818 0.31284726 0.355951 0.32182038 0.07243955 0.17275006 0.16413929 0.1871267 0.23414247 0.30753052 0.3513304 0.41211927 0.23333669 0.21580221 0.37423307 0.27982402 0.2812571 0.25075075 0.36334378 0.26935205 0.20311484 0.24983016 0.5478811 0.5891905 0.61933136 0.5978632 0.48425084 0.5997503 0.64218336 0.64264524 0.6071099 0.56413484 0.600905 0.56318283 0.41973555 0.39693367 0.30808002 0.17341152 0.13573726 0.16135211 0.09923889 0.5898387 0.53797126 0.54099816 0.52317935 0.36777607 0.396812 0.36763063 0.30214044 0.21468507 0.11738915 0.5341002 0.5348518 0.51047 0.25472033 0.42697647 0.345548 0.49045646 0.49369872 0.42103446 0.19042242 0.48221734 0.3761812 -0.21091513 0.51964295 -0.22048877 0.44801262 0.06822889 0.06576097 -0.027727807 -0.16272323 0.41493872 0.08650704 0.08920814 0.3018208 0.06726342 0.0761825 0.22914235 -0.11213883 -0.15730868 -0.04836797 -0.03824307 -0.11421563 0.060998406 0.15844068 0.36142108 0.080533914 -0.08107601 0.26340282 0.24888718 -0.1831778 0.42775768 0.05661172 0.36000192 0.25870472 -0.19007291 0.23485863 0.30843085 0.041827403 0.16267875 0.22230086 0.28542617 0.27656537 0.16879143 -0.04065713 0.20946601 0.26095906 0.2924071 0.16505063 -0.1324364 0.07631035 0.24510264 0.13451433 0.15092272 0.037249528 0.08174726 0.07011471 0.31860045 0.28877407 0.22713843 0.3068239 0.36113203 0.29733863 0.22041874 0.017758705 -0.11792804 0.11959967 0.7004397 0.3286584 0.18993485 0.21741799 -0.0034423284 0.12453917 0.61912304 0.6826904 0.7229495 0.3584478 0.3246563 0.23416384 0.24824853 -0.05674378 0.094267614 0.69620967 0.71953535 0.2288096 0.20151614 0.1951406 0.21266106 0.24594733 0.25053746 0.4779184 0.489328 -0.011706602 0.21701145 0.21788384 0.26248547 0.38366193 0.35929412 0.5059234 0.47261852 0.42399287 0.44982952 0.51142585 0.29819804 0.23874024 0.14833154 0.25136527 0.29172933 0.54667616 0.5751642 0.5700176 0.23461291 0.28214544 0.41834983 0.5408169 0.59134877 0.5810498 0.37049687 0.46329674 0.55968213 0.58850884 0.57591426 0.52735776 0.5525286 0.5454345 0.43940142 0.54061115 0.5730648 0.55939287 0.540287 0.36323875 0.55204946 0.53155434 0.33010942 -0.02883194 0.51993847 0.5644843 0.5585748 0.5141703 0.31868756 0.39513594 0.36748314 0.2740281 -0.0003892295 0.465361 0.53755903 0.5496018 0.5441457 0.5009161 0.44760704 0.31955 0.30110174 0.47882456 0.5176488 0.47590983 0.17732777 0.2882362 0.33120745 0.4197381 0.45571655 0.24985737 0.22210655 0.13956651 0.16189802 -0.047470327 0.43858868 -0.017971642 0.31836963 -0.04538177 0.03207027 0.0005976334 -0.20875484 0.29709846 0.25202942 0.035453532 0.060635656 0.19685835 0.22178343 0.20316416 0.11808275 -0.018714532 -0.01960685 0.095454074 0.1173169 0.059268355 -0.0067100227 0.087850824 -0.051408388 -0.06478046 -0.15112284 -0.28313014 -0.011626497 0.01745782 0.0012079924 0.3207587 0.036446 0.27441037 -0.040080838 -0.11910173 -0.07785024 0.11229896 0.016391747 0.24065037 0.19623448 0.2719905 0.23051818 0.16221176 -0.0023562908 0.29212677 0.26846245 0.3439246 0.26699698 0.19491434 0.024549522 -0.20294823 -0.21577749 0.22475341 0.27167004 0.23048289 0.37525368 0.3455928 0.17818499 0.13763915 0.004093997 0.3929532 0.35324955 -0.09947249 0.0021678843 0.08477224 0.25174612 0.10104382 0.557842 0.6811652 0.61739504 0.470492 0.41572636 0.40778404 0.5054343 0.7202152 0.6925253 0.46551585 0.38970643 0.34809268 0.15402937 0.40669686 -0.08126041 0.6024086 0.6860759 0.70337635 0.6963618 0.31765068 0.24937612 0.15997334 0.23403978 0.52807665 0.05269912 0.04714889 0.645624 0.66544133 0.23519321 0.2313006 0.21942258 0.32472068 0.36476114 0.5165489 0.21514198 0.38717523 0.3263906 0.38511968 0.4577998 0.4597513 0.41603854 0.4268309 0.3858195 0.42535332 0.50784326 0.47905484 0.46416467 0.4523175 0.29008108 0.28965384 0.5512637 0.53882796 0.15250435 0.5568456 0.5095887 0.25128052 0.39422598 0.4850642 0.5875709 0.58059204 0.5461551 0.40784892 0.5455067 0.5954693 0.5817884 0.48520175 0.5190046 0.49181885 0.29714617 0.52276236 0.49306622 0.23191601 0.47135514 0.48069912 0.60719526 0.59776336 0.57273066 0.28072017 0.094887786 0.07438338 -0.102044426 0.45911902 0.5866486 0.5774059 0.5346612 0.44623142 0.19075036 0.29493773 0.09303985 0.41552776 0.5102094 0.5581428 0.29825345 0.071600884 0.2677127 0.41070342 0.4628024 0.29447392 0.38876027 0.10506903 0.15801892 0.50052935 0.5034652 0.45789373 0.3214892 0.01289098 -0.0077677816 0.12390879 0.44850257 0.43927297 0.3809282 0.29503328 0.11574248 0.1298393 0.33792496 0.3045286 0.273462 -0.040062055 -0.25034115 0.09631127 0.17087084 0.24122632 0.2502837 0.019557089 0.16605356 -0.041605547 0.020727 0.06895874 0.1345123 0.3250759 -0.023406107 0.33983272 0.3668458 -0.015185375 -0.0788547 0.37625074 0.4357023 0.0073604286 0.39013442 0.44630927 0.4698845 0.35124305 0.40724906 0.4532916 -0.06603935 0.24936715 0.3595006 -0.16316685 -0.0052799727 -0.18980405 0.020753194 0.16254197 0.058174066 0.120402075 0.25038615 0.24559265 0.18534663 -0.4972797 -0.48276484 -0.39287597 0.17713934 0.342668 0.35135373 -0.29653072 -0.30525035 0.22820216 0.07887965 0.43990374 0.38752422 -0.15337047 -0.109904215 0.0661697 0.09721729 0.5160535 0.46629128 -0.15842554 -0.12858771 0.45988998 0.56925964 0.5555923 -0.12583101 -0.06363421 0.5988169 0.5266734 0.46485323 0.3094104 0.6229062 0.4324085 0.37723583 0.30655175 0.25090933 0.2255347 0.16858767 0.50336003 0.5435531 0.5832289 0.55643576 0.22734389 0.3498058 0.2669781 0.46703136 0.43661886 0.44412595 0.39448267 0.31736737 0.3960712 0.30994266 0.58016014 0.57095736 0.48502243 0.4608838 0.42885023 0.3563159 0.28567505 0.45131877 0.61216754 0.5934383 0.51538056 0.46550316 0.24643707 0.2098543 0.15684052 0.43211436 0.31457847 0.28155723 0.19480634 0.4829589 0.45300993 0.30446938 0.28361276 0.4397965 0.5086669 0.5622314 0.52470315 0.43093705 0.52015746 0.5197217 0.34245017 0.4505361 0.20201032 0.41838217 -0.034301933 -0.017833801 -0.07286515 -0.012582766 0.33093673 0.6107687 0.6273735 0.59404385 0.1947445 -0.017107533 0.5696626 0.5912906 0.15010336 0.28541335 0.41480893 0.45755938 0.096766494 0.17222548 0.3530055 0.14648679 0.20622641 0.5343266 0.53637004 0.4786892 0.36836016 0.3112303 0.08982295 0.06852491 0.5123772 0.53041846 0.31368995 0.17899173 0.051119793 0.06332046 0.46168017 0.22035998 0.14791404 -0.060309134 0.33110034 0.36382553 0.039605066 0.19369406 -0.084166326 0.03249795 0.12304091 0.3334911 0.36386397 0.020166216 0.3469317 0.37312853 0.00951523 0.39283192 0.42950076 -0.031269748 0.44304025 0.45779824 0.48906356 -0.11825415 -0.043543305 0.42744544 -0.05119227 -0.16513129 0.21335858 0.32573476 0.04170644 0.09041578 0.22307384 -0.12181418 -0.24936797 0.19849162 0.20883091 0.12346215 0.13150038 0.2891165 0.25915253 -0.5320958 -0.40164337 -0.38971597 0.10569627 0.15045106 0.36295196 -0.11258371 -0.53290343 -0.34267136 -0.4528886 -0.7791734 0.43544018 -0.17714971 -0.08090891 0.5026732 0.52443445 -0.316121 0.33956385 0.5635208 -0.17234284 -0.14056334 -0.18019852 -0.11262438 0.4875157 0.36187416 0.57734036 0.50628996 -0.080395006 0.44207036 0.43577632 0.46503296 0.4146219 0.3366143 0.17896035 0.18815592 -0.050246067 0.36838084 0.48477823 0.42827362 0.033633173 0.23912776 0.30801624 0.26140136 0.2704971 0.29364485 0.24562734 -0.106852695 0.55159116 0.360332 0.21218075 0.57897437 0.6096333 0.5804014 0.4833951 0.4242528 0.3343363 0.24294968 0.28007656 0.32959992 0.60071254 0.58767045 0.5047936 0.34364596 0.35386723 0.42208594 0.3575604 0.36906278 0.34732622 0.27683517 0.23356858 0.41525346 0.43413582 0.3771232 0.27968186 0.457004 0.47625023 0.796793 0.68004656 0.74202466 0.7899382 0.66579974 0.6285602 0.701579 0.75703305 0.6037658 0.012679189 0.35198212 0.36147314 -0.019935839 0.016546566 -0.026878156 0.014560837 0.1914882 -0.015835583 0.0025451719 0.002705841 -0.033921745 0.17801306 0.2044377 0.54959464 0.60518616 0.60108477 0.03634592 0.14258972 0.53197527 0.2451422 -0.19257912 0.20699033 0.44319975 0.20852584 -0.012420181 0.29918098 0.21969588 0.53739536 0.53652346 0.4638569 0.3665169 0.2555706 -0.015010402 0.5259541 0.5428035 0.30536482 0.124308266 0.14123702 0.44368762 0.48882705 0.08892143 0.42957637 0.042722557 0.2930102 0.026957348 0.30992317 0.3246702 0.1269505 0.036040545 0.37710574 0.38929087 0.15805596 0.048612516 0.38752794 0.061384603 0.38959068 0.3980451 -0.04418259 0.46355888 -0.21046884 0.47651905 -0.13542481 -0.19200695 0.3873608 0.109508485 0.30858475 0.2738757 0.17683868 0.10861067 0.08963448 0.3846233 0.3302934 0.10263789 0.39210796 0.33165246 0.12053246 0.16717598 0.40735745 0.31829864 -0.51577425 0.16200903 0.18132445 0.20490731 0.35333657 -0.35782132 -0.4493156 -0.39431766 -0.36799353 0.16162407 0.18267627 0.19864902 0.41278666 0.41530722 0.04027196 0.014282921 -0.18107566 -0.2682834 -0.24758542 0.14007299 0.16254425 0.47253394 0.47130126 0.0062767565 -0.16554931 -0.1149988 -0.10742162 0.12939334 0.24634066 0.5007584 0.49938357 0.00508124 -0.07234224 0.53274524 0.50015944 0.3948335 -0.07830731 -0.04977216 -0.023284473 -0.088873275 0.2753091 0.3205362 0.25758207 0.12139164 -0.1201419 -0.33318213 -0.069569066 -0.28865844 0.28520143 0.06539281 -0.0650688 -0.059197024 0.29165703 0.19526264 0.051920064 -0.014173953 0.47229147 0.20654619 0.16116782 0.14470255 0.037912745 0.5674062 0.57358265 0.29013613 0.21790116 0.1419763 0.24989334 0.095280886 0.07055822 0.57435936 0.54581964 0.36766928 0.35609034 0.14169595 0.35053954 0.36550692 0.3508009 0.2685964 0.24758694 0.2579347 0.15036747 0.31700313 0.30078122 0.260704 0.19759198 0.66606474 0.76780057 0.8406873 0.8692082 0.69338953 0.7038162 0.5841148 0.6411587 0.7331286 0.83175766 0.8481877 0.8287005 0.5991544 0.65744835 0.69032526 0.6698266 0.5693505 0.569862 0.7135061 0.78074276 0.21747944 0.40368658 0.55599046 0.65118957 0.5792513 0.55703664 0.49554712 0.6428663 0.6963041 0.44428968 0.51650834 0.3582787 0.2741671 0.1339508 0.063140064 -0.019108575 -0.003184097 -0.020400347 -0.013752672 -0.1084467 0.18417397 0.30317503 -0.007457301 0.08052746 0.40807837 0.32996666 0.37864912 0.31440753 -0.27343225 0.15835795 0.29801023 0.16546388 0.19878379 0.42633924 0.32686657 0.30793953 0.27414313 0.22344838 0.5195444 0.5237111 0.4824133 0.3915139 0.26472068 0.122029185 0.2022386 0.503165 0.15824872 0.36384887 0.42832536 0.092620686 0.267367 -0.006526269 0.07399281 0.29471833 0.18337844 0.00015197694 0.26783 0.3241883 0.4140534 0.3471772 0.20320313 0.35977697 0.40772763 0.35955217 0.22982335 0.36711496 0.31489378 0.35600263 0.10264995 -0.058169164 0.39427924 0.08484912 0.2506959 0.16529414 0.24435702 0.37993762 0.33240318 0.40610498 0.32414532 0.43246233 0.43925717 0.32412812 0.36658454 0.48794544 0.22039516 0.31955782 0.3714564 0.45355722 0.17450157 0.3345503 -0.29869947 -0.31535476 0.12147872 0.08979779 0.37554815 -0.17916045 -0.16714583 -0.10212639 -0.11305974 0.4165572 -0.19871062 -0.12361446 0.16966751 0.0044503063 0.37312448 -0.064207286 -0.1293512 -0.20216799 -0.14317603 -0.16676761 0.04073651 -0.05541961 -0.16564637 -0.27306977 -0.43415788 -0.4413522 -0.08904378 -0.22538969 0.07829828 -0.25360894 -0.2246036 -0.19202118 0.03143485 0.018526182 -0.02603446 -0.03638785 0.09587851 0.045998335 -0.011711672 0.044488937 0.5010566 0.49739838 0.21357587 0.14015575 0.1752187 0.12851945 0.10259667 0.1660186 0.14250806 0.103634164 0.42665485 0.2870916 0.22500464 0.13009204 0.2542037 0.26503253 0.30069593 0.30115965 0.25125018 0.07618956 -0.011318287 0.064960405 0.2129159 0.3081218 0.28646544 0.25587437 0.23288397 0.7897887 0.67659366 0.7514639 0.81360376 0.80374306 0.79371965 0.6891198 0.70148504 0.68958795 0.5656963 0.6038106 0.7788441 0.57236964 0.69795793 0.66951907 0.5832602 0.57123756 0.6582057 0.21028522 0.3994461 0.6053355 0.5226654 0.59436643 0.54858714 -0.032503173 -0.02362229 0.3642769 0.5489972 0.49420974 0.042826608 -0.051340174 0.26204988 0.2537615 0.46011993 0.4479882 0.25479606 0.06296152 -0.09263086 0.21067134 -0.21171889 -0.1382074 0.11979795 0.041333072 -0.19551238 0.43762553 0.38141453 0.17318557 0.17291015 0.17357996 0.19669211 0.4529919 0.38797522 