# vtk DataFile Version 2.0
Really cool data
ASCII
DATASET POLYDATA
POINTS 12764 float
-101.52192 -5.010044 79.04478
-101.589355 -5.393331 80.015
-101.5815 -5.266319 80.4525
-101.523285 -4.6910715 78.878
-101.5561 -4.731179 79.57224
-101.5557 -4.762837 80.38519
-100.74581 -10.081687 83.11009
-100.83357 -10.21452 83.69374
-100.8667 -10.220454 84.38761
-100.7388 -10.168664 85.50687
-100.795364 -9.430498 82.872536
-101.08844 -9.420815 83.661736
-101.20008 -9.21643 84.522026
-101.14206 -9.275679 85.44752
-101.06673 -9.133163 86.26235
-100.72946 -9.174421 87.13009
-100.84078 -8.96302 82.928604
-101.043564 -8.690334 83.56635
-101.17533 -8.479409 84.633865
-101.27865 -8.4302225 85.606415
-101.22285 -8.473475 86.399994
-101.05297 -8.436377 86.97043
-100.75798 -6.6658826 80.33933
-100.69475 -7.99199 83.34661
-101.02781 -7.6816177 84.86492
-101.20712 -7.7261486 85.66203
-101.11094 -7.6845365 86.36969
-100.947464 -7.856109 87.012825
-100.842094 -6.0218387 78.72624
-101.15372 -6.1156354 79.67214
-101.201385 -6.126866 80.54086
-100.79757 -6.5188885 80.89212
-100.73482 -7.0476546 85.01184
-100.81291 -7.044654 85.477806
-100.70542 -7.0162306 86.46171
-100.87166 -5.2298574 77.83794
-101.3092 -5.291963 78.74672
-101.454865 -5.4169526 79.524345
-101.46958 -5.5940266 80.783394
-101.367935 -5.3319855 81.135315
-101.081856 -4.418133 77.824104
-101.40842 -4.4175215 78.4856
-101.472084 -4.384439 79.57306
-101.430016 -4.4753156 80.42284
-101.25668 -4.800916 81.20842
-101.00538 -3.8182435 77.96309
-101.22515 -3.8003592 78.54248
-101.23842 -3.9046955 79.41191
-101.14377 -3.9892511 80.304695
-100.921326 -4.204413 81.09205
-100.849266 -3.3421745 78.71407
-100.06438 -10.754403 82.93672
-100.21423 -10.882436 83.57232
-100.2429 -10.926664 84.51171
-100.08003 -10.945146 85.28373
-99.898964 -10.85332 86.173935
-99.88281 -10.083375 82.39605
-100.29632 -10.439814 82.835815
-100.54977 -10.572772 83.481346
-100.4308 -10.620253 85.438065
-100.36674 -10.168313 86.32579
-100.1589 -9.832354 87.176834
-100.067085 -9.463904 82.319954
-100.492096 -9.544961 82.59455
-100.26877 -9.277947 87.51047
-100.04525 -9.293289 88.40016
-99.79399 -9.087318 89.084236
-100.30896 -8.336924 82.594376
-100.21826 -8.624785 88.24743
-99.957695 -8.423003 88.90624
-99.62853 -6.8107195 77.99574
-99.806526 -6.932378 78.69143
-100.563866 -6.6878257 80.027954
-100.271904 -6.8919196 80.42354
-100.00269 -7.3590407 81.77224
-99.85359 -7.3592176 82.12318
-100.46489 -7.8321624 87.55835
-100.40024 -8.027788 87.92764
-99.63396 -6.4023995 76.583694
-100.26654 -6.330827 78.55898
-100.64305 -6.355431 79.33191
-99.868965 -6.9116435 83.883896
-99.88597 -6.5070534 84.509346
-100.57695 -6.7491174 85.43359
-100.45019 -6.683161 86.2148
-100.29216 -6.9621944 87.17955
-99.5676 -6.0439835 90.6193
-99.59795 -6.075635 91.11945
-100.52786 -5.363544 77.53062
-99.89714 -6.3310447 85.73332
-99.91284 -6.2913003 86.11519
-99.643074 -5.413182 90.75317
-99.61878 -5.699462 91.32179
-100.25113 -4.6638303 77.20747
-100.70974 -4.241301 77.50253
-100.63007 -4.4730587 81.56283
-100.28791 -4.3486333 81.69023
-99.59748 -4.9657693 90.74977
-99.57572 -5.066745 91.41934
-100.62703 -3.7785087 77.651695
-100.043884 -3.4999125 80.59435
-100.546524 -4.095487 81.304565
-99.850685 -3.9565377 81.71624
-100.30591 -3.3170817 77.98527
-100.47772 -3.207483 78.53607
-100.27875 -3.2124734 79.321495
-100.18288 -3.3705568 79.975746
-99.85201 2.1690645 99.146065
-99.91221 1.845558 99.654816
-100.03759 1.7701435 100.58634
-99.91868 1.8131609 101.05944
-99.974014 2.6853096 99.015305
-100.19309 2.4654927 99.68649
-100.30731 2.5779078 100.47136
-100.06382 2.5494828 101.35705
-99.74603 2.4441993 101.77279
-99.890465 3.2414951 98.82078
-100.21173 3.4109445 99.511215
-100.34206 3.553553 100.55808
-100.156235 3.5011332 101.455475
-99.85423 3.6235452 102.053444
-100.198586 4.4169235 99.686714
-100.270645 4.2660937 100.53669
-100.024185 4.3414445 101.48229
-99.742424 4.203421 102.14624
-99.589584 5.379819 98.024574
-99.92377 5.3507404 98.87425
-100.097244 5.363894 99.509735
-100.08195 5.233903 100.3393
-99.81411 5.212831 101.11389
-99.72074 5.9611807 98.89739
-99.89411 5.85608 99.57634
-99.740715 5.98945 100.15477
-99.01548 -11.529192 85.61403
-99.60062 -10.798726 82.799385
-99.547646 -11.17006 83.49135
-99.38623 -11.296468 84.64999
-99.34275 -11.370805 85.54278
-99.37974 -11.206093 86.148445
-98.96216 -10.745626 87.64411
-99.500374 -10.253841 82.36176
-99.60259 -10.586129 82.51397
-99.33909 -10.192116 88.242935
-99.064255 -9.993036 89.22214
-98.82178 -9.95742 89.72952
-98.72323 -9.300432 75.74501
-98.90136 -9.144726 76.458305
-98.77805 -9.149033 76.94186
-99.29006 -8.9446335 82.15713
-99.451645 -9.474616 89.25891
-98.846115 -9.351098 89.839134
-98.76737 -8.205952 74.99421
-99.02911 -8.514739 75.569824
-99.07792 -8.587805 76.58089
-98.92032 -8.648901 77.057465
-99.16214 -8.568952 82.1538
-99.4747 -8.536596 89.44182
-99.243095 -8.016465 89.84668
-98.99119 -7.375495 74.9183
-99.36603 -7.4358797 75.66343
-99.50774 -7.59732 76.39143
-99.386086 -7.5278835 76.93456
-99.05709 -7.4537973 78.51919
-99.23606 -7.341205 79.39421
-99.604836 -7.477298 80.4667
-98.73599 -7.4615293 90.51919
-99.199455 -6.7444196 91.17986
-98.679886 -6.9283414 92.49838
-98.71019 -7.2722883 95.04419
-98.8101 -7.204383 95.52274
-98.66654 -7.259326 96.04269
-98.94775 -6.748001 74.89012
-99.391 -6.5136395 75.73108
-99.566666 -6.7706633 87.98462
-99.47073 -6.1451464 89.96891
-99.25479 -6.554673 90.750824
-99.25611 -6.2876134 91.76494
-99.05995 -6.291809 92.22583
-98.87155 -6.1779065 94.48724
-99.085815 -6.3863006 95.51714
-98.94271 -6.572363 95.952354
-98.90159 -6.1883144 75.12932
-99.01114 -5.989077 75.59201
-99.09804 -5.5777445 76.30581
-98.97224 -5.377169 83.101295
-99.36806 -5.8495555 84.73584
-99.47435 -5.8140244 85.482216
-99.38959 -5.8957195 86.40042
-98.925 -5.608812 87.64791
-99.436325 -5.3972564 89.984856
-99.46155 -5.6279454 91.76304
-99.28968 -5.792798 92.100044
-99.275986 -5.5288796 94.62641
-99.2811 -5.3734045 95.37749
-98.75756 -5.4533796 96.33648
-99.73846 -4.4293895 77.0374
-99.00884 -4.413747 82.55548
-98.88777 -4.864254 83.0523
-98.67032 -4.565721 88.14605
-99.02381 -4.763899 88.49077
-99.26321 -4.501943 89.56358
-99.4321 -4.765046 90.75925
-99.443245 -4.794231 91.14516
-98.8666 -4.4900684 92.06818
-98.91402 -4.628641 93.89261
-99.21559 -4.384339 94.55173
-99.29926 -4.6054196 95.34876
-99.12441 -4.6495967 95.870605
-99.01806 -3.6883368 82.26792
-98.92905 -4.0758677 88.9204
-98.86551 -3.8854132 89.71987
-99.038155 -4.127742 90.32832
-99.06974 -4.184024 91.06336
-98.97058 -3.9520457 94.54463
-99.076645 -4.0411897 95.46902
-98.839195 -3.960939 95.898506
-99.34064 -3.21314 77.86711
-99.47539 -2.9828446 78.75022
-98.69076 -2.361741 79.35462
-98.97374 -2.6145246 80.45932
-98.79031 -2.7475967 81.344475
-99.30014 1.3405355 99.629585
-99.436424 1.153908 100.38976
-99.263535 1.2858105 101.14018
-99.42392 1.9631361 98.88933
-99.51187 1.4832846 99.53269
-99.56496 1.5754926 101.30616
-99.33014 2.0164618 101.84305
-99.22905 2.5718684 98.29615
-99.54162 2.5399902 98.56679
-99.41413 2.712069 102.1874
-98.99805 3.1031258 102.71724
-98.74899 4.0236435 96.47874
-99.326546 3.8289394 97.76867
-99.510956 3.512552 98.36056
-99.49268 3.4481814 102.46682
-99.08785 3.678694 102.79075
-98.83165 4.923725 95.74169
-99.01587 4.534068 96.81394
-99.37755 4.3056684 97.76198
-99.43725 4.2468195 102.46708
-99.11656 4.278433 102.72035
-98.73383 5.965376 94.91172
-98.98758 5.631641 95.699905
-99.17099 5.448352 96.46295
-99.40454 5.342244 97.564255
-99.43959 5.445885 101.41146
-99.31574 4.9148293 102.156296
-98.779854 6.6684623 94.829506
-98.96876 6.487956 95.30619
-99.0611 6.4219623 97.608826
-99.36853 6.4692492 99.35446
-99.403656 6.1718097 100.37084
-99.0447 5.957662 101.112915
-98.70231 7.171366 94.77342
-98.8693 7.2522197 95.3551
-98.76302 7.0887485 96.88199
-98.93744 6.8270726 97.90481
-98.8494 6.619447 100.17939
-98.56895 -11.569927 85.82414
-98.07149 -11.698894 86.1029
-97.79641 -12.482838 87.855705
-97.96103 -12.247908 88.4626
-97.83146 -12.328674 89.1568
-97.66421 -11.913275 90.195435
-98.95947 -10.880533 82.91366
-98.99949 -11.196746 83.555374
-98.99818 -11.255122 84.156555
-98.8707 -11.457503 85.35107
-98.426865 -11.339808 87.36331
-98.14984 -11.392318 89.479324
-98.03723 -11.343047 89.9124
-98.223305 -9.886522 75.82666
-98.30425 -9.856626 76.4172
-98.85649 -10.526003 82.61162
-98.453636 -10.57835 89.68771
-97.76671 -10.501277 90.782936
-98.170135 -9.383259 75.08414
-98.51201 -9.536374 75.66648
-98.39597 -9.301549 77.30147
-98.06424 -9.198268 77.90351
-98.4406 -9.830332 90.25899
-97.80447 -9.8604555 90.69346
-97.653694 -9.04412 105.48087
-97.6513 -8.958066 106.24204
-98.011894 -8.132044 74.353424
-98.231285 -8.302791 74.67146
-98.277435 -8.151954 78.26022
-98.170944 -7.6886077 79.4108
-98.78176 -8.324497 81.86239
-98.16492 -8.922529 90.25451
-97.9701 -7.884937 94.61152
-98.17106 -7.842013 95.44248
-98.175 -7.684874 96.1403
-97.68754 -8.51411 104.8674
-97.805336 -8.4623 105.574196
-97.68809 -8.5165 106.29743
-98.16389 -7.214143 74.33795
-98.55004 -7.5099425 74.52422
-98.44397 -7.6282406 91.67233
-98.2406 -7.1994514 93.17483
-98.448555 -7.5615473 94.890945
-98.56793 -7.5407457 95.59685
-98.360954 -7.4849615 96.15415
-97.84971 -7.1545186 97.67236
-97.75669 -7.5135827 98.44759
-97.722885 -7.0995283 99.27999
-97.58427 -7.705155 104.98788
-97.66494 -7.7587266 105.466095
-97.671 -8.015423 106.232285
-98.09859 -6.8205442 74.34428
-98.43977 -6.6611376 74.55862
-98.44438 -6.5918365 93.530136
-98.58606 -6.759146 96.56963
-98.14301 -6.1150675 97.69658
-98.06906 -6.336972 98.66172
-97.84755 -6.3100243 99.4341
-97.665405 -6.1872816 99.837944
-98.19356 -6.0149283 74.775734
-98.41251 -5.6030526 75.450455
-98.398026 -5.2334275 96.54674
-97.9389 -5.6722035 97.85936
-98.05519 -5.74331 98.56406
-97.83325 -5.779595 99.21047
-97.591446 -5.9613557 99.866104
-98.05678 -5.3660936 75.374954
-98.23916 -4.700458 76.62916
-98.29601 -4.387298 83.51782
-98.21519 -4.599965 86.179955
-98.50642 -4.59916 87.881256
[...]
POINT_DATA 12764
SCALARS features_00 float 1
LOOKUP_TABLE default
0.6392102 0.61679536 0.63800997 0.664073 0.6474647 0.6503812 0.62752515 0.6470372 0.62352306 0.51148635 0.57706594 0.60921 0.590667 0.5458993 0.50199765 0.43607023 0.5343257 0.544181 0.55477583 0.53263426 0.5067697 0.4763974 0.3562916 0.46444738 0.49154192 0.49487925 0.4824263 0.4734649 0.48822227 0.5031101 0.51955533 0.36939406 0.39717424 0.4048704 0.41284817 0.60688174 0.6178908 0.6026562 0.6204988 0.6474817 0.67360854 0.6886493 0.65457326 0.6458236 0.62373304 0.6800264 0.6973485 0.6642156 0.6189786 0.5442221 0.6324015 0.60878515 0.6254009 0.55853593 0.45411158 0.35276473 0.5460854 0.6098019 0.64229167 0.4787401 0.42080116 0.3718196 0.52027345 0.56224835 0.38340867 0.298363 0.20355752 0.426376 0.33974713 0.22907802 0.22002067 0.23367497 0.33278245 0.2349812 0.0798643 0.15525177 0.43148708 0.39606583 0.4293325 0.36786506 0.40086275 0.3529626 0.2806412 0.35630026 0.3555078 0.38609362 0.37335917 0.35271794 0.53135896 0.26872623 0.2633467 0.40254134 0.37899536 0.48413336 0.6258845 0.41193742 0.2847913 0.40103278 0.3989432 0.6195129 0.3482291 0.4155251 0.19042827 0.5453848 0.5579824 0.48477563 0.433792 0.5363282 0.63712066 0.75033104 0.7463031 0.49019325 0.61536515 0.7252414 0.6979693 0.65977025 0.42800713 0.5353935 0.67140216 0.66119885 0.6336565 0.54204535 0.6267468 0.65197814 0.6422144 0.3804081 0.44351858 0.50953245 0.5890114 0.63347036 0.44711906 0.51050305 0.5564199 0.27971298 0.5773637 0.59114623 0.44937032 0.33776733 0.2802337 0.22489458 0.5120092 0.55303884 0.2670821 0.17720674 0.13154037 0.5815941 0.5248232 0.44814226 0.38661462 0.18050793 0.11022212 0.5673119 0.59729135 0.49216276 0.4009392 0.33005154 0.12712248 0.037956428 0.54392767 0.58833003 0.50606173 0.36892262 0.10071577 0.14190522 0.066808894 0.06261599 0.24599048 0.14772367 0.4055915 0.40522286 0.3856336 0.50178075 0.49329257 0.25601974 0.34900755 0.2946052 0.29201773 0.26558015 0.40016517 0.46874282 0.4378685 0.4379111 0.39118898 0.24808353 -0.043309726 0.11622828 0.15844414 0.12782976 -0.034638904 0.38443708 0.37651494 0.34685358 0.5023621 0.55028677 0.43322915 0.31252062 0.04181907 0.0011211259 0.028182637 0.11087527 0.29698253 0.39266518 0.39458755 0.29837674 0.3691616 0.48683223 0.5323469 0.488145 0.06857874 0.1569148 0.23352814 0.31559664 0.3349281 0.4392832 0.4796517 0.4285543 0.31241873 0.31120163 0.15335473 0.19121185 0.13917935 0.6286037 0.74071777 0.7422301 0.49262416 0.61753166 0.7341314 0.6538494 0.37546515 0.42603576 0.6159569 0.5793036 0.28239223 0.3027365 0.35619044 0.6170373 0.6098313 0.38652974 0.31230068 0.31935832 0.6355612 0.62618446 0.4587075 0.42455265 0.39232937 0.36438578 0.6297562 0.64917547 0.48561686 0.47781682 0.39048722 0.47089216 0.5561161 0.5758266 0.49761042 0.51646847 0.44340405 0.39068922 0.50806534 0.18454786 0.06939836 0.21009198 0.2846875 0.32106864 0.24686214 0.5044693 0.5351638 0.4726682 0.28833297 0.12195126 0.21014029 0.19199283 0.55609363 0.5122033 0.43639907 0.13931729 0.12023221 0.57338744 0.5775699 0.3691526 0.22213073 0.1023752 0.09010729 0.74823904 0.7419517 0.4839145 0.5263244 0.08027458 -0.082751766 0.17817262 0.06106446 0.3791703 0.379166 0.36518112 0.7720385 0.78198564 0.76278234 0.442206 0.50266355 0.05243167 0.18150982 0.40495622 0.39166996 0.37267548 0.39914733 0.43673202 0.51982576 0.76206946 0.76496756 0.7645987 0.41162685 0.4461684 0.23821752 0.38297382 0.3901553 0.469119 0.4630671 0.44640267 0.36055237 0.2842496 0.35472116 0.3096937 0.37106475 0.39317858 0.4208756 0.19939429 0.011709039 -0.020157479 -0.22189227 -0.024059009 0.26137325 0.29856592 0.059269138 0.049256396 0.03443966 -0.09105854 -0.030869007 0.07009845 0.16702172 0.3983724 0.29110774 0.22893713 0.18452463 0.23408145 0.18250944 0.10247195 0.15816925 0.08318515 0.04750564 0.052219324 0.20543674 0.28548813 0.35619432 0.25217536 0.2000916 0.16732809 0.1607089 0.13545525 0.16725 0.17389587 0.15321365 0.105909 0.0898855 0.063679025 0.23411927 0.15230569 0.13274781 0.09796317 0.1356582 0.19728337 0.5780074 0.6880478 0.7271967 0.35784942 0.38425332 0.5731652 0.17945826 0.54989153 0.301248 0.57211185 0.39542484 0.39781654 0.6032628 0.44685236 0.44375378 0.6039606 0.5863315 0.46572876 0.48817027 0.49094582 0.51852036 0.52582216 0.50012 0.49865973 0.38911092 0.39216608 0.4476326 0.47657907 0.5115427 0.5288078 0.4760806 0.41147876 0.35159767 0.31789756 0.3636631 0.34535736 0.2976889 0.037253134 0.13015842 0.29910347 0.24628943 0.4651781 0.44553244 0.07004349 0.20650364 0.17865257 0.5511366 0.52923054 0.48122782 0.31759572 0.22354198 -0.07477507 -0.0559958 0.12459521 0.5992571 0.65125173 0.63183844 0.49624968 0.1813458 -0.2648574 0.079071194 0.033371724 0.59659433 0.67533684 0.69926035 0.70620155 0.67824423 0.44566104 0.50005877 -0.031044394 -0.26042277 0.3455916 0.34546757 0.3394937 0.34135148 0.35030362 0.41876122 0.6743611 0.7489677 0.74859476 0.7154387 0.3668654 0.3892032 0.494681 0.5039196 0.46406284 0.6602224 0.74687195 0.71780884 0.7359482 0.71632075 0.37135044 0.4613708 0.4328562 0.65414584 0.6669661 0.6526531 0.64876735 0.17856854 0.35336962 0.39932346 0.37748718 -0.033947233 0.14006579 0.30480868 0.3096705 -0.003833591 -0.01240845 0.048026156 0.011077383 0.012903895 -0.031680644 0.11178677 0.18212613 0.13928585 0.009375369 -0.06424482 -0.015472814 0.25633204 -0.064879455 0.10968765 0.16006543 0.1891343 0.09273292 -0.13710101 -0.16289434 0.26372707 0.25174308 0.22517326 0.19181818 0.1066508 0.14607763 0.19075814 0.1644086 0.12946789 0.12561148 0.13076764 0.18118876 0.20548531 0.11849914 -0.06977594 0.13157111 0.11934749 0.15110046 0.15811463 0.19287857 0.21996373 0.24324237 0.18212569 0.033947114 -0.20129898 0.6758364 0.6885123 0.15324935 0.17157008 0.18115631 0.18420134 0.21559241 0.2357478 -0.09652758 -0.18966052 0.09022993 0.5139482 0.62158084 0.6752608 0.68360764 0.23157778 0.20580663 0.23542744 0.6129677 0.6696987 0.23723283 0.2794241 0.29336858 0.28458068 0.5734011 0.24207431 0.25060463 0.29323274 0.31607497 0.3219654 0.4693135 0.5215238 0.29518524 0.28062916 0.27328095 0.29647818 0.31786552 0.36062545 0.36814994 0.47291422 0.3344544 0.3130321 0.3049544 0.28029686 0.39037415 0.4396757 0.47860512 0.4148158 0.4189152 0.4385863 0.49694794 0.36068964 0.4377305 0.40335664 0.62731993 0.65626514 0.65455055 0.6644524 0.6793185 0.67979485 0.677385 0.6836225 0.31882256 0.36884475 0.37850422 0.19580284 0.3733976 0.31400034 0.007905945 -0.23530427 0.0043806545 0.2613958 0.17955935 0.27803203 0.43709797 0.36884484 0.3041914 -0.026543811 -0.018150132 0.13849984 0.013301864 0.1254814 0.5279689 0.25216073 0.15127853 -0.09834993 -0.08490819 0.015514005 -0.12257561 0.2790022 0.35171324 0.4966796 0.6133429 0.5583998 0.47853947 0.048048817 -0.1692557 -0.16215576 0.2712347 0.6253291 0.6143291 0.39894122 -0.26109326 -0.19651535 0.25263196 0.3016084 0.28340682 0.30389106 0.34040806 0.35646623 0.4090035 0.62588406 0.24974751 0.6348878 0.15973265 0.20585978 0.33249035 0.57392424 0.57971907 0.5729818 0.15502982 0.2923233 0.46946257 0.5175483 0.5310836 0.52623695 0.035029814 0.15434311 0.21859777 0.19313957 0.19727421 0.12271144 0.06056813 -0.012856146 -0.0278503 0.08045785 -0.12265585 -0.04793383 0.075494595 0.17477304 -0.087302536 -0.123270966 0.0030202493 0.12396259 0.1868779 0.17623754 -0.04343732 -0.05120924 -0.16355085 -0.14134385 -0.1503212 0.12092781 0.59099746 0.6290691 0.6483139 -0.12112348 -0.037324872 0.049510226 0.04765129 -0.0029027127 -0.03644841 0.05589843 0.078088775 -0.12810794 -0.14386767 0.6701943 0.67821765 0.6724746 -0.10961792 0.12855473 0.14610285 0.076321036 0.096565045 0.015618963 0.10687751 0.15941729 0.19815911 0.19760771 0.18182871 0.1536983 0.8991796 0.6853478 -0.117957816 -0.068103395 0.13202327 0.20357794 0.22171392 0.2017755 0.15651673 0.11300978 0.17223613 0.6774112 0.067190476 0.17434764 0.24261622 0.31007007 0.58751726 0.64320326 0.23324066 0.15420428 0.20988011 0.32758853 0.34787703 0.31876862 0.19738108 -0.00177674 0.55256134 0.28679892 0.33287317 0.288155 0.24616812 0.3281768 0.3528918 0.18022595 0.21274903 0.38005877 0.38592592 0.35836375 0.27785897 0.17145735 0.2429739 0.32220688 0.38068187 0.37232494 0.37083662 0.38564175 0.34146315 0.28223306 0.23886195 0.3034385 0.30366537 0.3778354 0.38982424 0.400057 0.38191783 0.31794402 0.38349873 0.37124646 0.31222236 0.34472457 0.38390666 0.3885976 0.38784558 0.33508807 0.2707249 0.32476923 0.34332103 0.42630392 0.52321917 0.5752858 0.30512595 0.20988616 0.12196322 0.4412066 0.47118503 0.64165276 0.6103605 0.624526 0.6359705 0.6677985 0.6295366 0.39125276 0.40424204 0.66536415 0.68110144 0.6727991 0.67255974 0.6627462 0.62848747 0.4488002 0.46422318 0.68583053 0.65191823 0.63539034 0.61741966 0.7208041 0.78636193 0.8140133 0.6586412 0.7131387 0.7450992 0.7289616 0.3090038 0.3269304 0.543296 0.6002626 0.61417466 0.6305814 0.035556503 0.053107053 0.24907687 0.28507742 0.3479989 0.34388244 0.33098498 0.37222427 0.46352437 0.41291264 -0.028769452 0.014955156 -0.06337525 -0.059434872 0.015388168 0.26731187 0.17428562 0.34997484 0.3927036 0.4238837 0.3414948 0.36311018 0.16838253 0.13322733 0.22723006 0.28347328 0.3520676 0.33828637 0.3232488 0.22891173 -0.014852386 0.32161987 0.3823189 0.32154134 0.17687324 0.3163015 0.33079013 0.08637622 0.148937 0.08837296 0.030143257 0.10733866 0.21204808 0.34721914 0.31681782 0.46164793 0.4243941 0.33286238 0.24497236 0.13758576 0.19625843 0.17830819 0.13602231 0.22547054 0.29041064 0.24154074 0.0883769 0.03772916 0.31738916 0.30328882 0.46986794 0.49407446 0.0942122 -0.042689748 -0.11252443 -0.0068169385 0.060137965 0.14539272 0.09293235 0.33259583 0.4192592 -0.19519556 -0.2969 0.043501154 0.47282368 0.13113259 0.15790242 0.12203866 -0.27227163 0.1836101 0.45809597 0.2541845 0.14928629 0.07802356 0.5548301 0.17002052 0.031234816 0.5037084 0.502398 0.19940174 0.182167 -0.034817092 0.2506315 0.29965836 0.44486055 0.46430272 0.4863035 0.18211737 0.09284097 0.10518618 0.09898684 -0.07502082 0.31814566 0.08082844 0.08228588 0.38562086 0.34320801 0.22016096 0.4519405 0.3467352 0.32915956 0.2013649 0.032897163 0.5532228 0.62036514 -0.042490814 -0.11449929 0.6418452 0.22848222 0.21641684 0.1169528 -0.042244866 -0.09819734 -0.12830086 -0.009703837 0.025508046 0.100178346 0.6628858 0.35658818 0.33206743 0.21823277 -0.09287457 0.073257856 -0.11862448 0.027513724 0.122606754 0.1813479 0.20624979 0.11957811 0.102084294 0.64829886 0.43449825 0.3806141 0.22446008 -0.040565465 -0.08480928 0.24226993 0.1866652 -0.013863362 -0.13955261 0.32283333 0.6058699 0.62938213 0.49656385 0.473386 0.24478397 0.15573163 0.25314182 -0.009325222 0.47409415 0.59490114 0.5364857 0.52143073 0.4022032 0.13123952 0.018223263 0.039314024 0.5021646 0.36079198 0.3758633 0.2858321 0.1446267 0.11633407 0.36455804 0.37535232 0.04044421 0.37174278 0.37571424 0.37747666 0.38335863 0.09980396 0.10389772 0.3933672 0.37110692 0.3744526 0.37191504 0.35500237 0.26779065 0.15203759 0.11172958 0.14089552 0.20379451 0.36265433 0.38267636 0.7537073 0.33878517 0.32841206 0.2972033 0.22249061 0.24273765 0.30522555 0.6142773 0.71787757 0.72689116 0.52477086 0.08535245 0.15567832 0.15800601 0.1708873 0.21344672 0.2786229 0.27300367 0.40105 0.51910067 0.668878 0.7088976 0.5536948 0.6137605 0.4829714 0.15362146 0.17331631 0.36035812 0.42120332 0.335673 0.61309165 0.6491531 0.53776824 0.21569438 0.3557514 0.46933323 0.48871732 0.48683506 0.42379445 0.66050947 0.666018 0.6241019 0.5849538 0.57937884 0.5772966 0.42032105 0.48617524 0.50641596 0.5046783 0.5950765 0.5627955 0.56016105 0.73421836 0.79121715 0.81528246 0.8020777 0.28262597 0.7036669 0.76814795 0.82687426 0.7937933 0.15193921 0.24962622 0.224752 0.13837609 0.63621604 0.73808396 0.6496335 0.50053275 0.4909156 0.41908938 0.21538179 0.09228053 0.13777559 0.13858558 0.050508156 0.089204356 0.2719809 0.29482472 0.4389682 0.5215177 0.58531845 0.3680449 0.39630103 0.15740038 0.031899527 0.035420597 0.2647843 0.26480317 0.3026116 0.3739727 0.43530977 0.44712353 0.364563 0.3568874 0.13343963 0.36513433 0.11932774 0.013225529 0.018510962 0.43856212 0.41538566 0.36888283 0.36374947 0.33825728 0.12792966 0.16604152 0.31345108 0.33435842 0.23339026 0.1268904 -0.13371661 -0.20372678 -0.07993997 0.26642585 0.28775275 0.43955708 0.24710307 0.15642615 0.07932861 -0.1648417 0.13755664 0.034290045 0.21162982 0.26706526 0.40384856 0.022041827 0.034793533 -0.09978715 0.22426975 0.35195133 -0.2557267 -0.07709296 0.27294892 0.18437171 -0.45119885 0.12253595 -0.6512532 0.34461448 0.19027376 0.38165352 -0.015349552 0.38424554 0.3718328 0.1668144 0.013730757 -0.053099517 0.14827536 0.32955456 0.41874713 0.2770116 0.12834473 0.5066704 0.2994386 0.029459283 0.5347055 -0.028743789 0.4732066 0.4636167 0.49536493 0.30967557 0.24841292 0.4192769 0.3291098 0.26900542 0.5395999 0.543453 0.34271428 -0.0058666356 0.065812096 -0.0315427 0.55949926 0.45078725 0.44263494 0.18360117 -0.10000388 -0.03305692 0.038248546 0.101322256 0.15010506 0.056393534 -0.025345499 0.50276375 0.5444139 0.4853232 0.4922623 0.19347705 0.049807634 -0.22351792 0.44977504 0.5177648 0.5191947 0.5381087 0.10871458 -0.13338669 0.53497934 0.48632744 0.081626385 0.29993767 0.22851929 -0.10402207 0.42894223 0.34538826 0.3464867 0.07315424 0.08271603 0.3208814 0.33364457 -0.092891045 0.36317214 0.3764571 0.093101054 0.22352928 0.34543326 0.6238784 0.35996354 0.36455944 0.36121386 0.07515843 0.69111526 0.6516056 0.34597903 0.23378891 0.24048069 0.065560535 -0.04538138 0.7021451 0.6695277 0.6613657 0.66498566 0.49219173 0.32023257 0.4400875 0.5867678 0.610288 0.56693375 0.5918625 0.2524244 0.3856907 0.34320354 0.37053943 0.6237538 0.62450695 0.5041785 0.3702643 0.34912527 0.41057378 0.4274525 0.49242288 0.46104145 0.41276872 0.5894196 0.55543137 0.5382395 0.503474 0.42322707 0.44568497 0.48055732 0.45818394 0.36257392 0.41445416 0.43910408 0.41230744 0.32160938 0.690208 0.7565205 0.7814977 0.7544608 0.5791601 0.34165832 0.373066 0.37936097 0.2991922 0.23525262 0.15800646 0.62585366 0.6857578 0.60329217 0.628688 0.6076711 0.5615291 0.47259587 0.33633435 0.20043811 -0.109389834 0.42857283 0.53220415 0.60030293 0.57000786 -0.026019134 0.011522666 0.18923974 0.23135848 0.15146442 0.168859 0.39264828 0.5167438 0.35269165 0.1981853 0.08988874 -0.18467373 0.25226262 0.36696577 0.37679884 0.42316198 0.34990877 0.33159962 0.16546094 0.1362457 0.29537427 0.43275005 0.18318385 0.11932075 -0.023256034 -0.23419817 0.20679432 0.40815398 0.3625839 0.23345034 0.19281241 0.39165068 0.19761899 0.19292173 0.092713 0.23840228 0.016539685 0.28484517 0.0438073 0.33237663 0.1166912 0.06782955 0.3079536 0.33804882 -0.13916507 0.20937274 0.18407637 0.48066223 0.0387099 0.53947484 0.5222311 0.13490063 0.54945976 0.5432206 0.13157599 0.21990998 0.27710545 0.5116532 0.5015931 0.28174925 0.4107994 0.31123003 0.4260879 0.26066566 0.48475158 0.41622913 -0.016988948 -0.035924952 -0.21923348 0.4305468 0.455014 0.44400656 -0.0956549 -0.12892094 -0.04861165 -0.029871363 -0.048833895 -0.34587765 -0.15374212 0.42123568 0.49769446 0.516108 0.016692571 -0.22769114 0.5040349 0.07496403 0.056565102 0.24644017 0.13726938 -0.23050968 0.46650928 0.4258995 0.34875724 0.022674449 0.034214705 0.24597144 0.24272937 0.35238573 0.3548911 0.4745367 0.5594434 0.34608403 0.34299958 0.33397564 0.31833443 0.6315037 0.6179495 0.28168985 0.62724715 0.13105997 0.6156781 0.6068666 0.41135368 0.5526318 0.5816864 0.46067542 0.49592608 0.3378856 0.4910218 0.5459059 0.5232807 0.4841022 0.4476149 0.3640811 0.3893153 0.31070492 0.37717694 0.35135466 0.5745805 0.52227104 0.5141378 0.37182164 0.385727 0.32295483 0.26253337 0.33857685 0.37612268 0.36179522 0.5429145 0.5230667 0.43671912 0.49078116 0.5178548 0.46668744 0.3706047 0.28226992 0.32452488 0.41356754 0.27116 0.21455805 0.14655337 0.21962753 0.25413087 0.6187187 0.6658014 0.6895126 0.6226666 0.57860684 0.5747891 0.12917149 0.24774247 0.12392264 0.22022629 0.2525701 0.23598325 0.42392367 0.58241415 0.50966513 0.6248194 0.6222589 0.29990533 -0.018262684 0.026261665 0.11003717 0.17894697 0.19287476 0.44399592 0.39718246 0.6197951 -0.1301855 0.0058198795 0.14474106 0.15735877 0.17520443 0.3307623 0.35745597 0.16684228 0.20597348 0.18498006 0.2650132 0.13524991 0.22849594 0.15551588 0.06828427 0.18120892 0.19725522 0.0020895004 -0.0041146576 -0.059161246 0.19933486 0.35494515 0.20233798 0.1878022 0.091174275 -0.011182293 -0.038385294 0.10417106 -0.03647695 0.25515983 -0.023559023 0.28852144 -0.00022221357 0.09121712 0.24799992 0.5405779 0.42234254 0.09230259 0.13704371 0.18988517 0.5547568 0.04069168 0.51889306 0.16284801 0.4758242 0.24208662 0.3209147 0.23159343 0.24478748 0.19914776 0.19011116 0.33883286 0.28105706 0.14372802 0.41047496 0.28504658 0.25350225 0.38508517 0.39954033 0.36121532 -0.100623645 -0.14652562 -0.19184104 -0.06745051 0.0018990277 0.38639912 0.4176048 0.41553116 0.034434944 -0.23600256 -0.21987034 -0.10868646 -0.16438346 0.04439022 0.4533273 0.3945021 -0.07562052 -0.34408668 -0.23023567 -0.21288772 0.01925388 -0.24736598 -0.09785506 0.29451728 -0.25296733 0.14058684 -0.4470204 0.3090426 0.3213378 0.29667124 0.042578775 0.5134131 0.3294892 0.3175038 0.2955294 0.25005206 0.58267313 0.56529677 0.117658354 0.54454446 0.005609736 0.5539976 0.5410396 0.15973455 0.45843887 0.512047 0.51420283 0.21222341 0.3695326 0.31584713 0.4257825 0.4203192 0.28507173 0.31164822 0.23904109 0.22302818 0.2496408 0.33660346 0.34442928 0.24800494 0.20072928 0.26535 0.2853517 0.25762302 0.5010125 0.54283273 0.5423744 0.44210747 0.38705188 0.47010636 0.42372775 0.2749288 0.19024955 0.24546015 0.2609743 0.23933724 0.28388005 0.24502677 0.25850707 0.24148905 0.17833617 0.40245157 0.47815776 0.50175774 0.48899752 0.5719862 0.5640977 0.4821542 0.019799523 0.20942903 0.17016068 0.16347507 0.33628252 0.51461875 0.46797067 0.55104285 0.49914584 0.3177743 0.17102462 0.16351938 0.4244477 0.38789958 0.5249836 0.13393143 0.16570851 0.306612 0.3182189 -0.2080585 0.06456725 0.055058043 0.73826754 0.6850888 0.60532176 0.13901517 0.2055876 -0.06864035 0.1478546 -0.21769333 -0.107849844 0.021045446 -0.008612212 0.8452742 0.84011173 0.7542404 0.55245405 0.38940585 0.24268468 0.05686903 0.22722656 0.8753268 0.8686608 0.7408808 0.60587347 0.3345249 0.19702971 0.23467319 0.8077599 0.76908636 0.7111703 0.1738978 0.7584665 0.71908903 0.5702405 0.0129567385 -0.057617363 -0.10085279 0.1710159 0.18110774 -0.106284216 0.2760128 0.13449521 0.48338354 0.4219949 0.25137818 0.52283883 0.14525744 0.23595618 0.49737498 0.13878693 0.36718613 0.3343891 0.12824865 0.11730583 0.3393976 0.2661566 0.17510183 0.108116 0.22823441 0.32120672 0.3229218 0.14764048 0.10056504 0.2803756 0.282166 0.22382317 0.15515733 0.34250465 0.3237392 -0.23514915 -0.20958765 0.19711503 0.2933018 0.3427329 0.16776511 0.21421623 0.24296853 0.10197071 0.15959454 0.2518332 0.258773 0.330467 0.21577205 -0.18184106 0.44281223 0.45071182 0.027920775 0.048283078 0.4315105 0.13150081 0.09857166 0.16008227 0.2948179 0.3690617 0.43143904 0.24700284 0.19691846 0.20064154 0.17135343 0.11814122 0.15233758 0.27091682 0.21264878 0.0976053 0.18557294 0.1826583 0.11691174 0.7587311 0.71368766 0.63208747 0.74275625 0.65672505 0.5661 0.4922303 0.4588993 0.48049805 0.51323044 0.3629895 0.24789867 0.24767381 0.21726267 0.12970796 0.16652313 0.204525 0.11120144 0.19969507 0.1344045 0.16460638 0.20295733 0.32710558 0.3903582 0.42676935 -0.0116426945 0.16739693 0.25415534 0.43938553 0.4032828 0.42763385 0.32288167 0.22672294 0.1171796 0.10960339 0.100627795 0.3937837 0.29595512 -0.13176805 0.102170736 0.11413202 0.33354238 0.6390631 0.60822153 0.48636812 0.34677163 0.28455985 0.26858345 0.23557235 0.24616724 -0.18844913 -0.17795742 -0.07992101 0.2747006 0.703895 0.68918884 0.6646186 0.51836187 0.39237693 -0.04980392 -0.23265123 0.2643436 0.77267003 0.27403086 0.8442879 0.27380887 0.79345274 0.17083246 -0.046514243 0.27506304 0.71412194 0.6570899 0.5268978 0.2777135 0.20195223 -0.35931003 0.25506908 -0.45141152 0.2000072 -0.44468492 0.04289077 0.05112686 0.31786543 0.16654517 0.40058053 0.22167985 0.4667136 0.24454133 0.42564958 0.20527782