# vtk DataFile Version 2.0
Really cool data
ASCII
DATASET POLYDATA
POINTS 2931 float
-33.575516 58.92234 67.90958
-33.582058 58.837967 68.21264
-33.55561 59.270428 67.87515
-33.561024 59.22577 68.370094
-32.788708 58.125324 67.23323
-33.11672 58.07587 67.82558
-32.98106 57.88266 68.372246
-32.935555 58.085598 68.922485
-32.96579 58.663746 67.153534
-33.34827 58.612137 67.65706
-33.455223 58.58572 68.33523
-32.969612 58.57192 69.18088
-33.116272 59.307114 67.234535
-33.362892 59.473656 67.605255
-33.435925 59.62513 68.4508
-33.208202 59.351494 69.07062
-32.960865 59.798283 67.276505
-33.03334 60.11335 67.755165
-33.135437 60.09243 68.46305
-32.682377 60.557785 69.067924
-32.365257 57.390354 67.82313
-32.168507 57.292824 68.41643
-32.251015 57.678135 67.28716
-32.15201 57.50144 67.41401
-32.554287 57.504982 68.29921
-32.34087 57.76266 69.18246
-32.73508 58.474205 67.06625
-32.459034 58.455105 69.67737
-32.712875 59.388363 67.023415
-32.054493 59.282833 70.08784
-32.547295 60.294777 67.59266
-32.26057 60.580845 69.94872
-32.287548 60.656574 67.948166
-32.024185 61.25974 68.576866
-32.30467 61.120304 69.06089
-31.676401 64.645584 71.37417
-31.889141 64.73947 72.395004
-31.749876 65.10785 73.518105
-31.760973 65.04052 71.69937
-31.978298 65.51081 72.58385
-31.935219 65.55466 73.3806
-31.657225 66.27348 72.24097
-31.832045 66.41386 72.80569
-31.901903 66.28096 73.275154
-31.729208 66.13751 73.83376
-31.732141 66.686455 73.21769
-31.66465 57.26546 67.73922
-31.582531 57.137756 68.39218
-31.749495 57.287544 68.8629
-31.6317 57.95576 66.911156
-31.043638 58.129578 70.21356
-30.53014 60.036255 74.77309
-31.565166 60.376865 67.2771
-31.25497 60.49659 67.516975
-30.586592 60.291355 74.793755
-30.555944 60.488953 75.46841
-31.758625 60.915745 67.8944
-31.721375 61.408245 68.432045
-31.488213 61.58358 68.67914
-31.491165 63.721237 71.37148
-30.928806 63.700882 73.05944
-31.2004 65.10816 71.00792
-31.57223 65.37408 71.566826
-31.574265 65.64435 73.99855
-31.462029 66.12902 71.8548
-31.518723 66.595245 72.377075
-31.536007 66.65112 73.70708
-31.30328 66.37551 74.068344
-31.115791 66.700005 72.052986
-31.293804 66.91398 72.601395
-31.316563 66.98364 73.37739
-31.110497 66.86087 73.89531
-30.661331 57.1164 68.80278
-30.365252 57.158707 69.50179
-29.616802 58.017952 64.096886
-29.751024 58.073406 64.43947
-30.322348 57.93324 67.23283
-30.60494 57.705513 67.42431
-30.611242 57.557453 70.07239
-29.815123 58.41651 64.1734
-29.976667 59.043354 74.79712
-29.86083 58.95556 75.54533
-30.006035 59.220688 75.87338
-29.725712 59.453125 63.781876
-29.764656 59.47704 65.229805
-30.165699 59.359722 74.68394
-30.381691 59.632496 75.35964
-30.272636 59.877804 76.1384
-29.801407 60.06027 77.26148
-29.774559 60.362278 63.779953
-29.855133 60.763428 64.45296
-29.779797 60.40958 65.368065
-30.51951 60.229576 67.09411
-29.737597 60.83172 73.68785
-30.448828 60.63396 75.83365
-30.285444 60.36649 76.62532
-29.892714 60.684017 77.4758
-29.676113 60.93851 63.920895
-29.69082 61.13968 64.448456
-29.855986 60.834198 67.341095
-30.261248 60.846848 74.208336
-30.463293 60.868084 75.84262
-30.112581 61.319687 76.61737
-29.974918 61.237606 77.283066
-29.694483 61.0853 77.710365
-30.899532 61.88233 69.35284
-29.991179 61.71659 76.35837
-30.117252 63.8742 70.50607
-30.841887 65.810005 74.45782
-30.485432 65.77658 70.847984
-30.475506 66.28791 74.41475
-30.349873 66.87237 71.91957
-30.546461 67.239624 72.66476
-30.427816 67.29856 73.43946
-30.36666 66.94622 74.07677
-29.054846 57.247707 64.581795
-29.483788 57.048264 69.392494
-29.697351 57.380676 69.999466
-28.887796 58.144966 63.167126
-29.453554 57.989613 63.834747
-29.31415 57.52237 64.36751
-29.05264 57.51633 65.234764
-29.835896 57.598717 70.24202
-29.013067 58.110924 72.912056
-29.15128 58.18948 73.57497
-29.110342 58.78379 63.101036
-29.50682 58.810303 63.47112
-29.256718 58.92863 72.20182
-29.380241 58.530704 75.0874
-29.123499 59.0819 76.89743
-29.173395 59.72072 63.016247
-29.494083 59.899223 77.51067
-29.302238 60.11735 77.80041
-29.16085 60.317055 63.06035
-29.534689 60.44347 63.50299
-29.448996 60.661175 73.28171
-29.42179 60.60092 77.884254
-28.94785 61.07997 63.190655
-29.335302 61.147278 63.702843
-29.370358 61.40058 64.42151
-29.421698 61.305397 73.40299
-29.594856 61.5742 77.58756
-29.305338 61.246353 77.901665
-28.892166 61.69839 63.9636
-28.960384 61.62957 64.1921
-28.950056 61.63137 68.694214
-28.957958 62.87473 70.35639
-29.148388 61.967705 77.34777
-29.664106 64.55079 70.10984
-29.495838 66.39845 71.09167
-29.999546 66.35918 74.44051
-29.627672 66.92195 71.81204
-29.796705 67.347435 72.72396
-29.677279 67.31919 73.4118
-29.652834 67.02205 73.97463
-28.434698 57.274998 63.67818
-28.040882 56.871426 64.56346
-28.019138 57.100765 65.07442
-27.940752 57.44465 72.95496
-28.08155 57.421047 73.51666
-27.877619 57.4982 66.76272
-28.585926 57.47771 67.68749
-28.453234 58.04152 71.86096
-28.57135 57.752663 73.61306
-28.402534 57.69489 74.16764
-28.079954 57.767887 74.87734
-28.439095 58.4247 62.833008
-28.507391 58.44561 76.239426
-28.226873 58.70562 76.84664
-28.081167 59.750675 62.456257
-28.669445 59.59586 62.694916
-28.259071 59.350975 77.624084
-28.268238 59.786514 77.97661
-27.947622 60.31917 62.41905
-28.44459 60.440845 62.65505
-28.508963 60.43659 78.20781
-28.279068 61.11624 62.893517
-28.556963 61.545124 63.469547
-28.054026 61.439556 65.264915
-28.312397 61.529263 77.98687
-28.044514 61.683388 63.21124
-28.28586 61.73833 63.528404
-28.36957 61.836273 64.77219
-28.675303 61.640804 64.88897
-28.451239 61.95149 77.60771
-28.234186 64.80871 69.87531
-28.247879 65.52984 70.06426
-28.891926 66.4126 70.912796
-28.342712 66.5114 73.518776
-28.622866 66.209564 73.90373
-28.44269 66.70807 71.5609
-29.069532 67.167206 72.63926
-28.893562 66.978546 73.46942
-29.107178 66.993164 73.82566
-26.688717 53.888287 61.997395
-26.718378 53.64271 62.43424
-26.744312 53.81068 63.15579
-26.675678 54.16047 68.74722
-26.556013 54.877247 61.15514
-26.685417 54.61622 61.541557
-26.83514 54.11103 62.322773
-26.777443 54.47121 63.31379
-26.855915 54.61598 68.21931
-26.996265 54.906002 68.954544
-26.638683 55.30078 61.522694
-26.932745 56.518944 63.154312
-27.42812 56.56362 64.307785
-26.615105 56.376797 65.66234
-27.531338 56.500824 68.663086
-27.57859 57.38714 70.78151
-26.876005 57.199936 71.324394
-27.777163 57.356068 72.96751
-27.29599 57.179665 73.4931
-27.573736 57.310345 74.13222
-27.572603 57.55912 74.60197
-27.495893 57.737583 75.1397
-27.490513 58.288063 76.14403
-27.518387 58.499367 62.414207
-27.077555 58.461372 76.538025
-27.525175 58.714935 76.99186
-27.794792 59.266296 77.703705
-27.304338 59.703213 62.226246
-27.439106 59.83183 78.1665
-27.413168 60.45374 62.33826
-27.668194 60.776756 62.527897
-27.484846 60.588856 78.43471
-27.086426 60.619495 78.5108
-27.533758 61.284584 62.67758
-27.345516 61.296143 78.2278
-27.373316 61.87597 63.10402
-27.451357 62.047977 63.555923
-26.969206 62.082108 66.57594
-27.570326 62.11956 76.537056
-27.73599 61.974274 77.39147
-27.625565 61.70205 77.91374
-26.612339 63.602352 67.9031
-27.099842 62.78654 68.683495
-27.679283 64.16581 74.24348
-27.686491 65.9284 70.57904
-27.469454 66.469376 71.865875
-27.40945 66.45858 72.322296
-27.86985 66.4126 73.19139
-27.818592 66.688034 71.912674
-27.839308 66.66104 72.57265
-26.12397 53.17302 61.86515
-26.218456 53.03066 62.510494
-26.231197 53.11654 63.182976
-25.96925 53.616142 61.053917
-26.332735 53.71894 61.460968
-26.530272 53.40527 62.28662
-26.36997 53.47223 63.552082
-26.217749 53.672577 63.894596
-26.15045 53.990253 67.813736
-26.166302 53.829624 68.59831
-26.111511 53.967094 69.30157
-25.913956 54.846966 60.345547
-26.201101 54.62846 60.720192
-26.562372 54.394886 63.589523
-26.54324 54.631973 67.37611
-26.058786 54.710182 69.95032
-25.85518 55.200665 60.355667
-26.133581 55.384262 60.61032
-26.462696 55.758232 62.37589
-26.082525 55.83512 60.76117
-26.065887 56.92157 71.34533
-26.928366 57.176662 73.54066
-26.433487 57.28716 62.26281
-26.533262 57.669308 74.521866
-26.938913 57.85092 75.154915
-26.571438 58.604733 62.152378
-26.595287 58.569637 76.65523
-26.681805 59.082558 77.35827
-26.575907 59.63928 61.885857
-26.620964 59.767643 77.9778
-26.41177 60.19797 61.971947
-26.6845 60.57993 78.33675
-26.421919 61.035046 62.371616
-26.472727 61.47194 62.618023
-26.430103 61.47998 77.690605
-26.659586 61.19002 78.17416
-26.748692 62.12887 63.42636
-26.493252 61.761982 75.59888
-26.716198 61.754414 77.53885
-26.027155 64.309395 68.00492
-26.123705 64.26847 73.82143
-26.577002 65.535675 72.66008
-27.21306 65.70306 73.2783
-26.982677 65.905815 71.08847
-26.897963 66.01806 72.48247
-27.113136 65.97964 73.042145
-25.171371 52.878498 61.08608
-25.502739 52.867416 61.5789
-25.311522 52.503056 62.65878
-25.630617 52.77527 63.090775
-24.87316 53.343437 69.54867
-24.832472 54.11397 59.97029
-25.536352 53.774174 60.58903
-25.741835 53.691 68.343475
-25.473299 53.705776 69.63688
-25.291822 53.85724 69.937675
-25.394356 54.67747 60.11528
-24.94663 54.559586 70.49021
-25.416437 55.37294 60.129704
-25.563173 56.97342 71.323235
-25.701885 58.53072 75.641045
-25.819244 58.786663 76.370514
-26.049267 58.850094 76.76357
-25.737066 59.506172 61.685833
-25.883768 59.616665 77.285194
-26.224714 59.975784 77.90692
-25.624407 60.364857 61.900707
-25.781992 60.405518 77.43089
-26.168747 60.576385 77.986336
-25.579756 60.990353 62.223007
-25.54422 61.093937 74.6931
-25.978046 61.243553 75.54275
-25.70966 61.031532 76.6249
-26.145205 61.27947 77.4736
-26.305025 61.139786 77.924904
-25.783705 63.592503 73.941956
-24.832788 64.23438 64.87986
-25.526155 64.259544 66.5515
-25.52493 64.461555 73.44205
-25.790873 64.455635 73.65547
-24.955921 65.10298 65.47518
-25.18668 64.99806 66.48364
-25.16656 64.87306 68.28393
-24.986437 64.65991 68.970604
-25.59354 65.151726 72.57721
-25.768665 64.91679 73.244125
-23.851706 52.08406 60.81895
-24.284683 51.96608 61.69258
-24.074612 51.809723 62.416485
-24.485525 52.26986 62.84303
-24.191648 52.801247 60.656208
[...]
POINT_DATA 2931
SCALARS features_00 float 1
LOOKUP_TABLE default
0.8256439 0.8276963 0.81567097 0.8208802 0.81101763 0.8200716 0.80817056 0.79972064 0.81249833 0.8245462 0.82698965 0.8045564 0.7975074 0.8005352 0.80312675 0.8216713 0.76043105 0.74016535 0.75938237 0.6864583 0.76482916 0.7214087 0.7651148 0.75147915 0.77159715 0.70611835 0.8050773 0.7394434 0.77226883 0.7599962 0.66428906 0.7141056 0.59634876 0.54614574 0.58548105 0.5848286 0.65086603 0.7670843 0.6195941 0.71023095 0.7791492 0.73019946 0.7823548 0.8034711 0.82568 0.82411367 0.69082004 0.6548101 0.63248885 0.6873266 0.4550429 0.55877465 0.48392192 0.43091416 0.56100833 0.57029504 0.49646315 0.48801866 0.45259452 0.6057744 0.6499813 0.58281267 0.6243707 0.806092 0.68350244 0.76319623 0.845947 0.84265757 0.737602 0.80234694 0.84979796 0.8594316 0.48523206 0.3720683 0.51855004 0.5109608 0.51008433 0.57614756 0.3815402 0.5438939 0.48973507 0.5276946 0.5596847 0.59491485 0.5965059 0.5169451 0.5537251 0.5850016 0.6707718 0.59981406 0.5918204 0.5475194 0.29481658 0.4355824 0.586063 0.6256423 0.6931418 0.5874301 0.5768243 0.22263196 0.51158226 0.58052576 0.6399901 0.6911053 0.72690904 0.3258688 0.61169755 0.45383245 0.8035673 0.64650357 0.83184636 0.7385307 0.8360442 0.8784897 0.8651291 0.3934723 0.23741543 0.23945183 0.505425 0.51474947 0.4492847 0.31696582 0.22094338 0.2923385 0.32320052 0.534001 0.5552757 0.29533577 0.45894438 0.6296762 0.55678785 0.68817484 0.71406037 0.56342643 0.58841646 0.37061214 0.7308709 0.5536922 0.57556355 0.56656086 0.30009645 0.73446965 0.76026857 0.56449294 0.5636061 0.15088858 0.21668863 0.7400743 0.45359123 0.6185962 0.8050114 0.6816386 0.77700114 0.7800324 0.78683877 0.42785448 0.2522599 0.18446724 0.28052413 0.32052556 -0.107255206 -0.0025090799 0.1911448 0.3256819 0.35571834 0.3800512 0.4752459 0.4741158 0.53986436 0.44082236 0.5028634 0.67440164 0.7532451 0.44582403 0.5033423 0.8134805 0.51044714 0.5473989 0.43009028 0.8181279 0.50984585 0.5340603 0.5060968 0.5153036 0.78393817 0.4996506 0.60441923 0.5834095 0.4732553 0.4720949 0.5515094 0.62150013 0.59517944 0.6602429 0.57678264 0.59133303 0.59654176 0.4051358 0.5074433 0.53034234 0.57513124 0.5645477 0.3539842 0.3694516 0.47407898 0.21976028 0.17724326 -0.105407104 -0.0059071905 -0.002831798 0.04643637 0.27648032 0.30151474 0.344409 0.3649549 0.38464913 0.45374954 0.3549735 0.51390123 0.56282485 0.68384516 0.36806297 0.817284 0.40037712 0.43891102 0.85381305 0.82541984 0.44415548 0.7902665 0.4516622 0.4673278 -0.08091691 0.6473863 0.73638994 0.77304363 0.14999638 -0.08268276 0.31570578 0.5731515 0.44919604 0.42262062 0.42186427 0.47908026 0.4485876 0.567019 0.5797101 0.58301175 0.52760357 0.55695033 0.5889395 0.5926285 0.5820971 0.40337196 0.4259555 0.4249168 0.4587955 0.4977991 0.5629871 0.29206026 0.38301843 0.4294954 0.4452507 0.38926977 0.39100426 0.027555093 0.28838763 0.21470472 0.36310256 0.39822662 0.2831509 0.5654019 0.6765898 0.31703746 0.7784657 0.31811792 0.79656684 0.3363664 0.35023588 0.7304937 0.7756252 0.39130443 0.47199595 0.7128922 0.3352492 0.33889684 0.35006878 0.33377537 0.47154313 0.37958887 0.35937795 0.46087295 0.5180532 0.51066524 0.5432511 0.4331637 0.37290812 0.47725052 0.43141574 0.4246316 0.41280353 0.41494006 0.3588341 0.35704905 0.037825294 0.5662159 0.60837173 0.63076925 0.24179736 0.699407 0.7549066 0.2564327 0.71931076 0.75795007 0.2668903 0.20174897 0.4369093 0.62233 0.7087579 0.75684917 0.30225995 0.53310925 0.36892232 0.34476107 0.34904867 0.5318518 0.47205654 0.3271952 0.25748175 0.32973742 0.34461436 0.21449876 0.36589542 0.31351805 0.37858132 0.3169275 0.3679685 0.4642197 0.45105892 0.43929297 0.3826282 0.35799772 0.20025617 0.43421954 0.4203071 0.42995155 0.26812607 0.39303717 0.21499847 0.10417493 0.29107827 0.30225515 0.078130454 0.4085436 0.14716443 0.54751194 0.38546538 0.61326396 0.65721464 0.050977975 0.15750147 0.15366578 0.6430951 0.19962981 0.09020936 0.115537874 0.265204 0.20612888 0.3006161 0.5279819 0.3294868 0.33348948 0.33403322 0.54733026 0.5401065 0.40570384 0.35429588 0.32670408 0.33877897 0.5592892 0.53198683 0.4226209 0.4356736 0.46319222 0.40533257 0.44125217 0.4546462 0.42231405 0.35624543 0.3735127 0.3972476 0.18683983 0.2067461 0.47606784 0.48861492 0.48341754 0.15056229 0.48115847 0.48522067 0.43794143 0.04569903 0.3648271 -0.0090160575 0.39721817 0.33229405 0.0742771 0.4622041 0.13893807 0.53556573 0.54705524 0.4896384 0.5381945 0.52277184 0.504478 0.15966962 0.4473086 -0.21566173 0.16610353 0.22052374 0.24600878 0.4983188 0.55503976 0.563676 0.36364442 0.57475936 0.58092576 0.5707427 0.3264125 0.38794225 0.42610726 0.47237298 0.3134513 0.37262136 0.42947274 0.2325269 0.26379788 0.18633303 -0.12858804 0.0015041009 -0.055628806 0.4660369 0.5122303 0.011565454 -0.3220687 -0.28783986 0.5024181 0.5195364 0.5038069 0.4463879 0.2370863 0.04055503 0.3699991 0.45224363 0.48571754 0.5047066 0.4942073 0.5289866 0.5157833 0.510466 0.28323337 0.14954035 0.49597937 0.48281825 0.3312773 -0.22386903 0.009098858 -0.23808812 0.33389127 0.3111879 0.4588213 0.5374478 0.4167509 0.40398324 0.53113675 0.5600634 0.6096366 0.6014659 0.46392787 0.42549276 0.24208097 0.36242738 0.27184546 0.43116987 0.25603712 0.26934624 0.30870348 0.17538081 0.23616892 0.21908487 0.21462864 0.14989597 -0.024140686 0.2102431 0.21021418 0.014331616 -0.16710997 -0.053430744 0.11650766 0.2929157 0.21192046 0.20566943 0.13825534 -0.07880472 0.45379478 0.497264 0.47403485 0.19455704 0.20272772 0.008029286 -0.21649855 0.43072197 0.10729388 -0.08359742 0.49093908 0.6218573 0.29072702 0.5725812 0.5345186 0.54780084 0.4904194 0.4604825 0.485443 0.4524836 0.47115788 0.3451069 0.7675184 0.7536053 0.48515633 0.3934123 0.4053833 0.14151609 0.075597 0.8727829 0.84588075 0.79642355 0.0078465585 0.9112555 0.91968274 0.89140916 0.8482915 0.9137903 0.893469 0.4225783 0.46101803 0.47256702 0.46796933 0.4578803 0.5177926 0.5221983 0.5809962 0.5819791 0.50825834 0.4677974 0.3983499 0.39511406 0.3950965 0.38409656 0.14632587 0.09964972 0.13870803 0.0050301403 0.39868504 0.38680226 0.3706431 0.5831373 0.5518632 0.09852212 0.070067026 0.31437463 0.3029686 0.7660224 0.64626956 0.5218192 0.21865416 0.10962725 0.15139002 0.059672326 0.80332583 0.7852436 0.675691 0.48102525 0.29890946 0.24872485 -0.009977829 0.78343725 0.7344545 0.65567124 0.41050214 0.2596109 0.23316494 0.23692437 -0.117119506 0.60050684 0.47280642 0.09009205 0.20717448 0.18609278 0.1898738 0.4406465 0.14161447 0.1781114 0.45834768 0.583824 0.6565032 -0.10957261 0.72193944 0.47988904 0.5120431 0.45474494 -0.007421536 0.6001047 0.54594076 0.63437086 0.65667635 0.57620585 0.56247675 0.6531044 0.7336552 0.6864395 0.5375469 0.40238127 0.44782227 0.5232582 0.7291372 0.70507234 0.6582554 0.534559 0.40772563 0.34098604 0.39043695 0.4185074 0.7880205 0.7055744 0.6251824 0.6211351 0.59143543 0.4203733 -0.14109258 -0.070922285 0.27339396 0.86418223 0.86605 0.751097 0.5959412 0.22006132 0.90111196 0.82586664 0.6748005 0.69345397 0.6565238 0.34001315 0.87599695 0.8907541 0.8237137 0.7926154 0.71990216 0.30049717 0.4282725 0.42369986 0.8373966 0.8023486 0.3753144 0.41604096 0.45708883 0.44153094 0.47651047 0.5230216 0.5281178 0.48614758 0.25793737 0.38090962 0.3815078 0.2559061 0.09332869 0.004222356 -0.04925463 0.33778194 0.3908503 0.37550664 0.2501664 -0.07262319 -0.055697124 0.21965152 0.38386276 0.34955186 0.07194891 0.03884635 0.34798592 0.33637896 0.6896654 0.63239485 0.50694984 0.46310252 0.08403463 0.3236689 0.26984295 0.7747109 0.74234545 0.4727078 0.30479127 0.25258037 0.21179202 0.21968701 0.22740504 0.7798084 -0.087707564 0.7688966 0.06620251 0.20027144 0.7065524 0.47679156 0.24113944 0.4123599 0.13072382 -0.083922 0.40901792 -0.14813891 -0.1500883 -0.011237596 0.6412921 0.7118571 0.7290367 -0.100697406 -0.09157042 -0.028397335 0.2779539 0.7442481 0.39353287 0.37809327 0.33060235 0.058422845 -0.028524827 0.016975388 0.019768946 0.7549063 0.4274962 0.44331342 0.4361887 0.1089119 0.07162987 0.10461147 -0.12583065 0.70112336 0.65085673 0.4777174 0.51119107 0.07829663 0.08735194 0.13611609 -0.21271297 0.5885242 0.5743884 0.5789626 0.601676 0.37823552 0.11831476 0.13217562 -0.26581487 -0.13422734 0.48503077 0.51938105 0.520636 0.39881513 0.7007111 0.49383125 0.365265 -0.2840019 0.06621352 0.38614917 0.4334057 0.43717125 0.7468718 0.4843831 0.38988766 0.50769615 0.50198644 0.42928225 0.46719077 0.34495214 0.08653737 0.07445499 0.75929177 0.34914112 0.35328957 0.6335561 0.57792777 0.54398364 0.51714176 0.46196347 0.8457998 0.43015486 0.7444627 0.6899152 0.6376151 0.24970879 0.3126138 0.82934666 0.7443949 0.45217222 0.47593743 0.81632316 0.80378735 0.7731414 0.7160554 0.63055015 0.37527058 0.39790753 0.7648623 0.76658183 0.7376298 0.6988827 0.5423486 0.5992491 0.8496163 0.8374934 0.7941811 0.32565624 0.31690928 0.44812077 0.44095057 0.48357508 0.6135995 0.49922514 0.66376674 0.65625226 0.60160595 0.53920984 0.4237166 0.670607 0.6671879 0.61082685 0.45805103 0.3117144 0.6624743 0.67088723 0.61966723 0.47442064 0.24498361 0.24588421 0.5944797 0.09177208 0.031509694 0.2934304 0.20181204 0.0955266 0.057284206 -0.040664002 0.27917844 0.35693008 0.36385167 -0.05189396 -0.12513457 0.36115947 0.26785353 0.24191862 0.31892684 0.28621083 0.6777606 0.64699656 0.56265736 0.29495406 0.25160417 0.7103001 0.11441752 0.7016965 0.16873619 0.17962769 0.6421548 0.38270617 0.60018253 0.34481722 0.09543474 -0.06777092 0.34761488 0.18503089 -0.13475794 0.30670336 0.73939043 0.25138304 0.1362725 0.07537134 0.5789928 0.73499215 0.7717103 0.7719197 0.3833518 0.27834868 0.30580813 -0.03718421 -0.08365775 0.4528036 0.5167931 0.7594232 0.7784342 0.40763408 -0.08359763 -0.17097542 0.08304976 0.6923152 0.71160346 0.41654855 0.014941201 -0.162067 -0.177542 0.16594744 0.37572148 0.4477328 0.5013548 0.5660776 -0.0225688 0.117901996 0.047083832 -0.11040364 -0.027362473 0.4481867 0.4688056 0.49807015 0.28358203 0.28247496 0.26863238 0.23165466 0.07098006 0.1311831 -0.19935675 -0.15580933 0.4226479 0.44272003 0.44579166 0.34154198 0.13575724 0.14681308 -0.27524135 0.6754504 0.28246525 0.24198894 0.118193574 0.23420566 0.71924144 -0.1676941 -0.16031851 0.21388364 0.80160195 0.26970226 0.101628914 0.35116434 0.32925317 0.74429226 0.7588767 0.41358125 0.5412203 0.561316 0.85369325 0.39436924 0.3052076 0.33573893 0.73879063 0.7087002 0.67065036 0.600754 0.5055729 0.4828298 0.57289773 0.651337 0.6610497 0.6104431 0.8613758 0.86026835 0.82844174 0.7388625 0.63146883 0.37112942 0.41470143 0.68363756 0.6351701 0.6413555 0.6956984 0.6891773 0.6645766 0.6898011 0.7183043 0.7373261 0.68620527 0.6326034 0.5878091 0.6586176 0.6652162 0.6361159 0.5681538 0.48669708 0.64640933 0.37759805 0.33652657 0.62989783 0.29987827 0.20579267 0.6044534 0.14903754 0.03613279 0.37311423 0.63473624 0.49832487 -0.09193937 -0.13343754 0.15323338 0.3314879 -0.047274794 0.03379578 0.29867813 0.23743406 0.19592659 0.10274275 0.26093394 0.34151706 0.10571432 0.3434649 0.6050382 0.5656996 0.54895926 0.35748035 -0.08303977 0.26005748 0.34353948 0.5788738 0.041863233 -0.46895784 0.25247216 0.16843991 0.05521793 -0.02864303 -0.03547889 0.30238724 0.27776533 0.087722845 0.09798096 0.060626566 0.1969971 0.04906973 0.13760597 0.7326736 0.7718066 0.15888156 -0.025703855 0.010977772 0.6991086 -0.058846734 0.6795989 0.33704537 0.30020866 0.3705461 0.34003282 0.24304143 0.08952615 0.365547 0.19555873 -0.0070000775 -0.20148507 0.15863182 0.040677615 0.3186046 0.0084530935 0.27525902 0.16763768 0.31505328 0.30341607 0.4581765 0.39139473 0.25657403 0.41276175 0.40582666 0.38941902 0.7250468 0.48710304 0.828506 0.47069257 0.2421832 0.25210258 0.41514906 0.41522697 0.36563706 0.7261276 0.51151454 0.58312213 0.83037376 0.7907325 0.747656 0.67184234 0.62600195 0.528535 0.7052125 0.67837846 0.6030791 0.54615414 0.6060454 0.6504541 0.7223624 0.6865626 0.7231232 0.7420753 0.69106567 0.66400015 0.56653976 0.5159031 0.66169906 0.4588245 0.36895335 0.3271651 0.6032641 0.30311453 0.28386533 0.2786099 0.5535779 0.05415626 0.47749186 0.046365228 0.25354877 0.32305038 0.43697545 0.48156846 0.4287068 0.36945322 0.23644845 0.25626728 0.31438774 0.3517972 0.38844663 -0.0376865 0.37385654 0.43933803 0.42815995 0.29998526 0.20279178 -0.23399493 0.35598394 0.37352628 0.10545005 0.034853153 0.284351 0.0016920716 -0.010753039 -0.019344037 0.005703993 -0.0034024566 0.17145507 -0.008393159 0.0480894 -0.0703678 0.038929604 0.0068028737 0.30512953 0.130405 0.0650654 0.42507046 0.3413459 0.25927362 0.42920965 0.39790025 -0.18912801 0.3989502 -0.03954278 0.2988399 0.123558566 0.15659301 -0.11045995 0.34909296 0.4194379 0.41829723 0.5854736 0.07164116 0.42198384 0.424325 0.68900955 0.35726938 0.57125914 0.5547137 0.5205622 0.53243554 0.5089932 0.7010182 0.66486216 0.56381077 0.3482113 0.45758724 0.7133374 0.6125991 0.6239315 0.6060848 0.5528662 0.62699795 0.57475924 0.25994352 0.41487935 0.53881466 0.5277797 0.579675 0.69325376 0.6185255 0.6384797 0.5875503 0.52868336 0.39203745 0.6391669 0.33347112 0.3167974 0.29177117 0.55729216 0.2986003 0.40116173 0.1994508 0.3238959 0.48382655 0.5623558 0.5803063 0.2649097 0.52895033 0.4731243 0.06330791 0.35226575 0.1295801 0.3466298 0.09355204 0.06582567 0.35906625 0.4261512 -0.062021896 0.4070311 0.3950529 0.34357393 -0.09534924 0.35247305 0.1467411 -0.04794565 -0.60658246 -0.42049876 0.13581875 -0.2920912 0.09158236 0.044211064 0.0037388504 0.0004890971 -0.049153075 0.0069117323 -0.10723095 -0.043465205 -0.030938087 0.12797736 -0.0312358 -0.05083287 0.1868341 0.13373497 0.10624589 0.3117559 0.2656052 0.22681879 -0.08386202 0.36278868 0.47215825 0.0048734806 0.41688004 0.09363772 0.13449982 -0.031548604 -0.08348434 0.061215073 0.13505188 0.3377958 0.35844627 0.4429406 0.6698111 0.5848581 0.28448504 0.3733441 0.42085978 0.41083387 0.5123732 0.5813041 0.5810822 0.5705999 0.6300208 0.05374112 0.34120643 0.5223764 0.54697824 0.5343126 0.4522246 0.25767934 0.3255037 0.49480158 0.47915366 0.35954788 0.40579617 0.53476715 0.48696303 0.50903976 0.43201208 0.36667973 0.23492435 0.2817692 0.40557316 0.3229391 0.2771345 0.28477603 0.13937378 0.06387358 0.48344025 0.59537774 0.19285417 0.33773625 0.59212995 0.62427926 0.592771 0.5439604 0.01805894 0.04497142 0.38684064 0.07344068 0.35987613 0.07617879 0.4144255 0.4504826 -0.19301495 0.45078647 0.44500864 0.14699435 -0.07705462 -0.12542519 0.4100959 0.42430735 0.43125203 -0.14526764 -0.12480667 0.33004084 0.34991878 -0.2867107 0.28635874 0.18719178 0.07720461 0.16509043 0.086818516 0.14363375 -0.023967544 -0.009954911 0.17920887 0.021038571 0.14407504 0.19715881 0.030567069 0.24444208 0.9030111 0.09852637 0.28230575 0.8775005 0.8720359 0.8845427 0.16979611 0.12858263 0.82902074 0.79801846 0.7964106 0.25259885 -0.10696356 0.37873894 -0.058976594 0.46408457 0.08084987 0.43906927 0.1512349 -0.09101363 -0.05171585 0.2849359 0.1687756 0.10227341 -0.03824736 0.06585194 0.17976585 0.32580048 0.09065835 0.06980552 0.23071504 0.2541517 0.27395308 0.25354406 0.5937829 0.56608033 0.34922087 0.3164767 0.3100769 0.48469582 0.5828349 0.59570754 0.5715901 0.2141668 0.1619519 0.21942621 0.33596325 0.394188 0.29205525 0.24943964 0.26762018 0.2304919 0.21750161 0.24394636 0.2295981 0.20067039 0.27625495 0.53923553 0.5914339 0.10385389 0.23261942 0.4140851 0.6225441 0.6223078 -0.05657829 0.54629135 -0.011019934 0.31399983 0.3134082 0.3820746 0.13599215 0.4372484 0.46306485 0.10204868 0.064265765 -0.08473585 0.49960092 0.47373524 0.48176783 0.45593154 -0.0429717 0.43725026 0.45029074 0.27829763 0.3077189 0.34558287 0.27710447 0.19705789 0.21111089 0.3722713 0.05569191 0.109758824 0.338902 0.3195585 0.2482698 -0.10888231 0.29678681 0.19040313 0.2110363 0.25484508 0.22851089 0.9226888 0.9288846 0.928745 0.91072065 0.10759429 0.28542757 0.24794437 0.8942802 0.9006149 0.87306386 0.8417421 0.11605052 0.27969718 0.31670922 0.3212111 0.29930985 0.83740836 0.81980824 0.73840487 0.77882504 0.2556623 0.20073628 0.1508248 0.2608167 0.32872504 0.7625917 0.71439654 0.6806526 0.6451117 -0.23286532 0.14688337 0.24940905 0.20327061 0.0948077 -0.20965469 -0.17049812 0.01806467 -0.014667854 0.26524043 0.33606517 0.27353346 0.019144416 0.007467173 -0.06696668 0.10773424 0.40696144 0.5398105 0.48097697 0.014614344 0.46574968 0.5422721 0.59140587 0.5785781 0.5679313 0.5933955 0.27175868 0.11230174 0.08714191 0.17721312 0.16985604 0.27328032 0.2907553 0.2579714 0.2417 0.52139413 0.5049853 0.23379035 0.21581514 0.16918105 0.48746234 0.13900928 0.1046486 0.0789054 0.18016522 0.09766126 0.45613772 0.578799 0.5850654 0.016512584 0.4327584 0.52932346 -0.008396683 0.28498417 0.43607932 0.36861947 0.21579418 0.18057224 0.41907054 0.26701194 0.48907202 0.47607696 0.44289646 0.45573485 0.27672538 0.38105413 0.2633003 0.26643646 0.19694443 0.22850977 0.47893196 0.45243597 0.20753385 0.16114843 0.44103476 0.38583755 0.362672 0.82258594 0.79720235 0.1504902 0.90895677 0.8727834 0.8633859 0.8264997 0.7701788 0.13777795 0.248469 0.8827035 0.73858833 0.60466456 0.09324375 0.32435906 0.26764154 0.2300276 0.8115292 0.8188498 0.40705836 0.3513746 0.17150486 0.33033377 0.3274578 0.31539991 0.785908 0.06952137 0.18191141 0.28186753 0.3174427 0.6323023 0.5569237 -0.39076933 -0.061662912 -0.47460148 -0.3615834 -0.106818974 0.20654401 0.24046127 0.24289323 -0.32657617 -0.35856634 -0.36521477 0.33094865 0.39070186 0.44945326 0.0076785907 -0.088861704 0.42228395 0.4739412 0.460196 0.09171184 0.03979701 0.08884674 0.3132487 0.33060092 0.28423503 0.31153122 0.27928153 0.24331564 0.54855376 0.4648131 0.44489795 0.41980714 0.31401062 0.53899795 0.5495217 0.2615732 0.19425394 0.49151444 0.11805259 0.42888433 -0.0118513405 0.39200968 0.30311504 0.26864418 0.1161909 0.28631452 0.24753512 0.15276696 0.22865292 0.27548236 0.3442043 0.23457886 0.3513065 0.36576995 0.19976874 0.33710182 0.31595016 0.3031823 0.29758698 0.02607124 0.23727486 0.4951753 0.51153183 0.41630232 0.29453504 0.24231082 0.47928625 -0.14190127 -0.1487577 -0.10008685 0.2523721 0.51876926 0.5956123 0.45337972 -0.048176132 0.56481755 0.5820899 0.7225604 0.7422973 0.7462542 0.38232127 0.39568588 -0.019194782 0.8256166 0.80051184 0.7323221 0.67470354 0.67049766 0.08297177 0.055237763 0.82560486 0.80992603 0.5785831 0.2296182 0.26104423 0.08959762 0.82777745 0.3157732 0.30559567 0.8195554 0.8035852 0.03929019 0.23852873 0.27911967 0.31155568 0.7643674 0.7328985 0.5562466 -0.012724212 -0.123603635 -0.15427452 -0.31998518 -0.18077633 0.1076814 0.2355895 -0.3264867 -0.45759737 0.044067733 0.053956963 0.072306365 0.2885283 0.11840743 0.113404125 0.3105219 0.13934904 0.11301856 0.30293572 0.32060808 0.3097124 0.2693876 0.20758125 0.53981817 0.52168 0.45980155 0.37752694 0.34549004 0.52592194 0.5269374 0.2873959 0.2421509 0.4661738 0.48248845 0.1418979 0.50175095 0.5210204 0.13756719 0.22123542 0.4887753 0.10780064 0.40231952 0.015427433 0.28752092 -0.16939661 0.09703152 0.14803867 0.19765428 0.055459645 0.15710926 -0.14790356 -0.08893504 0.06898108 0.12462517 0.22365081 0.38049507 0.35277689 -0.076092534 -0.21083221 0.3546095 -0.22088641 0.48413527 0.49400878 0.46077833 0.31853628 -0.06450376 -0.27552864 0.46015835 0.55213445 0.4625283 0.45104462 0.68672776 0.7393581 0.46123824 0.3957947 0.7730883 0.44553542 0.44190806 0.006915644 0.48455775 0.6710501 0.7982842 0.782566 0.7062122 0.6289156 0.41306436 0.05500397 0.032660738 0.81066227 0.7909211 0.32910466 0.3214238 0.07095166 0.8220196 -0.06076345 0.27998346 0.25205916 0.822926 -0.0054405965 0.16375442 0.22343232 0.2790315 0.80685693 0.7747717 -0.021560693 -0.034400843 -0.039666526 0.011261493 0.69240165 0.52530074 0.44203666 -0.04312077 0.029983727 0.097642004 0.08611494 -0.07385449 -0.048463292 0.3146397 0.26191685 0.054096363 -0.27585757 -0.3423413 -0.18667755 0.07553965 0.095897265 0.14624825 0.19401515 0.07824771 0.26762453 0.12609342 0.31225365 0.31157625 0.28136477 0.16917634 0.30917755 0.3126528 0.46951148 0.4812779 0.46895146 0.42580962 0.3835686 0.29859298 0.20764121 0.38836586 0.1297702 0.14130898 0.5431474 0.5042583 0.10892308 0.55121046 0.5644831 0.54903924 0.1811315 0.13040052 0.031703576 0.08847295 