# vtk DataFile Version 2.0
Really cool data
ASCII
DATASET POLYDATA
POINTS 8125 float
-31.632185 60.040314 29.998432
-31.623428 59.957413 30.384733
-31.640024 60.77976 29.218224
-31.80087 60.687195 29.641851
-31.913054 60.701607 30.437601
-31.744444 60.68603 31.193365
-31.641842 61.553158 29.22251
-31.918821 61.42715 29.801453
-31.977032 61.384136 30.42724
-31.731548 61.352665 31.406603
-31.768326 62.020382 30.376352
-31.650309 61.911747 31.197643
-30.656105 57.848747 27.963488
-30.670696 57.624317 28.382141
-30.646317 57.407978 28.877583
-30.69953 58.039703 28.02909
-30.81495 59.282585 32.17536
-30.65209 59.81046 28.27131
-30.973673 59.652565 28.74611
-31.20632 59.61049 29.416159
-31.346247 59.533302 30.430674
-31.337843 59.752846 31.600094
-30.973755 59.731743 32.418118
-31.457401 60.87107 29.0405
-31.399591 60.445744 32.18518
-30.914099 60.468323 32.885136
-31.232924 61.38132 28.857521
-31.219746 61.45438 32.468998
-30.950428 61.24496 32.89357
-30.888266 62.13714 28.80103
-31.490177 62.30014 29.822433
-31.397268 62.412426 30.533043
-31.266874 62.267315 31.508654
-31.080454 61.96988 32.30251
-30.861383 62.842934 29.719364
-31.1391 62.774445 30.367174
-29.739641 56.144234 29.051956
-30.038979 56.954647 27.667223
-30.084364 56.616238 28.47984
-29.863577 56.54295 29.670012
-30.02224 57.550377 27.245207
-30.414232 57.546192 27.671988
-30.532509 57.3989 29.05767
-30.03435 58.325947 27.195698
-30.513964 58.24292 27.69444
-30.398817 59.166775 32.56413
-29.823048 59.069004 27.394266
-30.381586 59.655773 32.93386
-30.129395 60.292683 27.902466
-30.399027 60.610287 33.25154
-30.493944 61.484253 33.135967
-29.9736 62.4064 28.093369
-30.587828 62.44315 28.60341
-30.42674 62.44174 32.44122
-29.983242 62.387493 32.754707
-29.6682 63.944897 22.818945
-29.743929 63.77431 23.43991
-29.71109 64.10206 23.98216
-30.28846 63.407837 29.588306
-30.17005 63.340218 30.721329
-30.648245 62.651955 31.811043
-30.433367 62.639442 31.979155
-29.732767 64.96234 22.29186
-29.878254 64.63139 22.659649
-30.045761 64.74176 23.457912
-29.798351 64.59454 24.024792
-29.978271 63.6614 29.583193
-29.760403 65.16867 22.327726
-29.972029 65.37761 22.789946
-30.057974 65.45965 23.520605
-29.854933 65.46191 23.943825
-29.77485 65.97926 22.76539
-29.847145 65.95943 23.451544
-28.871384 55.248123 29.515867
-28.799192 55.246944 30.120155
-28.827795 56.23854 27.189346
-29.119175 56.071968 27.86716
-29.095085 55.669746 28.587936
-29.314375 55.600716 29.452282
-29.113176 55.69469 30.431623
-28.790297 55.50679 30.82019
-29.205605 56.760162 27.133638
-29.54953 56.524483 27.594484
-29.653433 56.40151 28.264698
-29.496859 56.79638 30.51767
-28.969723 56.437084 31.240328
-28.87263 56.841988 31.856413
-29.396511 57.29648 26.949354
-29.37051 57.40992 31.392042
-29.217987 58.091652 32.421566
-29.172562 58.344753 26.68593
-29.29524 59.6238 26.946222
-29.570362 59.63406 33.265373
-29.363928 61.36337 33.42556
-28.868666 63.04198 22.341862
-29.079418 62.816883 22.912703
-29.112404 62.674267 23.41842
-29.594767 62.203926 33.02681
-29.062855 63.673954 22.157207
-29.469307 63.60517 22.705406
-29.49747 63.31502 23.753328
-29.49255 63.71234 24.093933
-29.064085 63.80198 24.677143
-29.265453 63.40085 28.598335
-29.659908 63.096615 31.701288
-29.712921 62.75224 32.30555
-29.37889 64.63997 22.11208
-29.264893 64.15616 24.50593
-29.087656 64.66421 24.727959
-29.200548 63.850086 29.39802
-29.396496 63.749916 30.301962
-29.245304 65.37066 21.964394
-29.538237 65.303 24.311718
-28.930807 65.504456 24.569357
-29.156458 66.07705 22.119143
-29.32167 66.32654 22.578743
-29.529268 66.35416 23.360802
-29.18439 66.38231 23.945652
-28.605396 66.637436 35.617844
-28.648731 66.73632 36.33629
-28.8752 66.88868 22.629292
-29.028399 66.82135 23.346848
-28.58925 67.23527 35.57539
-28.57713 67.32403 36.294125
-28.386284 55.33396 28.090992
-28.365585 55.173958 28.755402
-28.512098 55.038696 29.862898
-28.405233 54.993164 30.184227
-28.092352 55.991917 27.052824
-28.545378 55.72145 27.686523
-28.637184 56.018375 31.505322
-28.204191 56.009033 31.867384
-28.291166 56.70657 26.756132
-27.94684 56.758564 32.67654
-28.190311 57.601456 26.579597
-28.574413 57.669083 32.63725
-27.93963 58.090656 33.29706
-28.087639 58.39285 26.483803
-28.547607 58.44497 26.622112
-27.98757 58.51509 33.6679
-28.214268 59.382214 26.546124
-28.44794 59.472023 33.732063
-28.027878 61.017326 26.363842
-28.580257 60.501614 26.689459
-28.439144 60.260036 33.73221
-28.354284 62.3849 22.860312
-28.602926 62.30951 23.430372
-27.884932 61.671597 26.211294
-28.433455 63.03812 22.213526
-28.44848 62.62971 22.541574
-27.651085 62.45469 26.159792
-27.989595 62.71499 26.499533
-28.873709 62.537407 32.78065
-28.353754 63.53755 21.874725
-28.442074 63.297592 27.732475
-28.513893 63.493126 31.277765
-28.67539 63.046436 32.00587
-28.631777 64.547104 21.665024
-28.646362 64.88552 24.89705
-28.705538 63.78572 29.00763
-27.748684 64.88266 34.5555
-27.761192 65.2176 36.25169
-28.413143 65.37726 21.634806
-28.737816 65.223885 24.814787
-27.911821 65.955505 34.67225
-28.172884 65.75985 35.3073
-28.177303 65.80729 36.470734
-27.92154 65.885765 37.11158
-28.311176 66.387085 21.743649
-28.614195 66.490265 24.164133
-28.434122 65.99769 24.648205
-28.105053 66.47532 34.665966
-28.459942 66.61976 36.63058
-28.115074 66.56438 37.26062
-27.769104 66.60257 37.652946
-28.114105 67.197 22.120787
-28.38844 67.35214 22.685034
-28.354479 67.3414 23.333986
-28.426386 67.03207 23.842485
-28.021994 67.45944 34.900856
-28.391352 67.59674 35.628113
-28.43089 67.530334 36.42798
-28.117365 67.27594 37.21596
-27.72801 67.39852 37.661633
-27.999514 67.63377 22.77817
-28.005415 67.60586 23.171162
-28.00001 67.793465 35.154194
-28.045635 68.122536 35.77955
-28.100605 68.09851 36.353333
-27.859192 68.0695 37.064777
-27.863234 55.36208 27.847828
-27.488274 54.6897 29.399342
-27.634142 54.908813 30.661964
-27.589092 55.081566 30.957417
-27.701633 55.900265 27.006256
-27.655975 55.411163 31.602335
-27.255957 55.694355 32.10096
-27.067997 56.263218 32.639652
-27.650427 56.451233 26.692825
-27.47712 56.483395 32.68345
-27.635801 57.54841 26.482285
-27.711187 57.513977 33.102943
-27.23478 58.79626 26.657211
-27.40747 58.657135 33.84061
-27.779634 59.796165 26.466015
-27.400757 59.392467 34.024456
-27.364399 60.25325 26.08626
-27.23931 60.22973 33.83612
-27.40711 61.72187 25.753761
-27.79769 62.779964 22.199703
-27.724495 62.584446 22.334145
-27.532341 62.627445 33.670948
-27.496044 64.00791 21.409666
-27.653313 63.52284 21.697227
-27.499039 63.18147 26.48608
-27.121016 63.844593 35.06597
-27.381716 64.375 21.42703
-26.882421 64.1071 26.933825
-26.985865 64.622856 28.359802
-27.338472 64.48872 31.941774
-27.309961 64.61802 32.43059
-27.38879 64.7792 36.057846
-27.26553 65.3034 37.044666
-27.411331 65.59376 21.301899
-26.891579 65.084946 28.465767
-27.479803 64.958374 29.97984
-27.285555 64.87673 30.59257
-27.356985 64.876625 31.90675
-27.341747 65.684845 33.55878
-27.491615 65.723206 37.39967
-27.258368 66.0175 37.78446
-27.42569 66.115944 21.36822
-27.533775 66.59309 21.577036
-27.29083 66.41121 24.646101
-26.763613 65.74297 30.0037
-26.841633 65.77841 30.431408
-26.642693 65.9641 32.121716
-27.276842 66.374954 33.746502
-27.382555 66.63715 37.8455
-27.419306 67.16414 21.824617
-27.847532 67.572136 22.276976
-27.558361 67.56891 23.593178
-27.700342 67.53808 23.744852
-27.522411 67.17196 34.216774
-27.320402 67.37198 37.78654
-27.584814 67.710655 22.644491
-27.516146 67.69988 23.234232
-27.107632 67.59116 23.788675
-26.924715 67.85699 34.11087
-27.029934 68.315414 34.869415
-27.411222 68.453445 35.58646
-27.526005 68.51921 36.593784
-27.42059 68.25476 37.27773
-27.281054 67.95093 37.66761
-27.179516 68.65366 35.86158
-27.223791 68.699814 36.391384
-27.189526 68.72434 36.930206
-25.834267 49.240788 28.942564
-25.794205 49.202614 29.437733
-25.972736 50.123722 27.912178
-26.035425 49.739006 28.584787
-26.08654 49.717716 29.418242
-25.895733 49.689037 29.934547
-25.728493 50.87175 26.918917
-25.972082 50.683712 27.604622
-26.249628 50.555145 28.592691
-26.221455 50.384945 29.43779
-25.988894 50.401623 30.133398
-25.7587 51.27268 26.930027
-25.977318 51.25517 27.49608
-26.195587 51.155083 28.528053
-26.020004 51.007954 30.101452
-25.841673 51.984962 27.799797
-25.708536 52.4233 28.525682
-25.802528 52.270424 29.32631
-26.28072 55.218765 28.241581
-26.181496 54.913467 28.78582
-26.22154 54.792583 29.420443
-26.593966 55.532562 27.7591
-26.92521 56.49358 26.792604
-25.73448 56.20964 33.287205
-26.052174 57.881195 33.45668
-26.161314 58.802208 26.706577
-26.568819 58.223083 33.45383
-27.02313 58.64773 33.858513
-26.63645 59.837162 33.88352
-26.827501 61.037197 25.491133
-26.912966 60.5662 33.872383
-26.4794 62.1104 23.42265
-26.719406 62.153477 24.861712
-26.53411 62.06486 34.098103
-26.614214 62.769936 22.08316
-26.645252 62.62317 34.38688
-26.770119 64.118324 21.33273
-26.87556 63.525677 21.512762
-26.596937 63.82249 35.501347
-26.53 64.5405 21.3265
-26.493984 65.430695 21.152931
-26.682724 65.421295 37.449585
-26.771269 65.874725 37.8577
-26.516562 66.15904 21.29199
-26.72756 66.33356 24.773151
-25.578487 66.61105 28.112732
-26.110085 66.052155 28.651112
-26.10574 66.428444 29.389574
-26.554937 66.03453 30.02524
-26.328793 66.09023 31.085474
-26.390373 66.2015 32.62686
-26.69082 66.57992 37.996967
-26.542088 67.33606 21.980743
-26.250097 67.17044 24.138124
-25.665821 67.273346 28.761673
-25.666576 67.2985 29.337563
-25.6842 66.87061 30.721098
-26.666222 67.66095 33.699577
-26.466211 67.416435 37.87843
-26.379934 67.59376 22.63397
-26.932966 67.671715 23.47765
-26.529287 68.35661 34.486904
-26.681364 68.39857 37.418343
-26.70561 67.96216 37.72309
-26.172836 68.64014 34.786636
-26.389673 68.78956 35.48399
-26.609625 68.84495 36.38158
-26.621367 68.671745 37.09768
-25.240498 49.12766 28.4271
-25.361841 48.881393 29.316755
-24.9013 48.874176 30.09188
-25.185183 50.158432 26.884949
-25.410986 49.837444 27.562529
-25.328318 50.14292 31.058073
-25.047506 50.834614 26.344494
[...]
POINT_DATA 8125
SCALARS features_00 float 1
LOOKUP_TABLE default
0.5184337 0.5483359 0.5118401 0.54646397 0.608459 0.64586794 0.58025706 0.6151774 0.642728 0.6679351 0.6387811 0.6449015 0.4959941 0.49648577 0.48848695 0.46754444 0.46931326 0.34197 0.3660209 0.4066422 0.49135822 0.58967257 0.54974574 0.4943592 0.6333483 0.60363233 0.51306087 0.6562482 0.64656496 0.5554875 0.6126704 0.60506666 0.60040665 0.61216176 0.5583185 0.5692958 0.49260104 0.5528306 0.53065515 0.47169718 0.5473285 0.53925514 0.47882843 0.4835326 0.46589434 0.41692537 0.38674968 0.4875233 0.30566788 0.5867452 0.6143858 0.41777205 0.52818424 0.5103812 0.48202795 0.7914578 0.807881 0.7746286 0.49069372 0.44934213 0.5092579 0.48628193 0.8059583 0.8276267 0.8470181 0.7716027 0.4505748 0.8206457 0.8660696 0.8708264 0.8121348 0.85593414 0.8640065 0.47452766 0.45486006 0.5174748 0.5084778 0.4887243 0.47459057 0.4332987 0.42041585 0.5343951 0.53456223 0.5197978 0.40635818 0.37549186 0.32352477 0.5400481 0.30259538 0.2634631 0.43035507 0.27319032 0.41840526 0.521429 0.58890253 0.6343818 0.6551275 0.47065592 0.6424919 0.74107635 0.77395296 0.75664747 0.63002324 0.36055487 0.3685241 0.4122646 0.7389449 0.70048 0.6897021 0.32826823 0.34484506 0.7629911 0.74434006 0.7044756 0.7919011 0.81229544 0.82496357 0.7637216 0.7637332 0.823243 0.74716973 0.7459442 0.76063806 0.82774884 0.49632058 0.48713002 0.46593758 0.45453846 0.5109736 0.5039089 0.37150133 0.3374116 0.501469 0.27334931 0.42097858 0.2898455 0.29029304 0.3018071 0.34239072 0.29267544 0.20410755 0.31906813 0.13821453 0.12848146 0.31999475 0.5079124 0.5400698 0.19064881 0.53244144 0.5300137 0.2093605 0.21667868 0.35066405 0.523948 0.16957502 0.14140397 0.271408 0.60882294 0.63191724 0.23390535 0.52689457 0.59402096 0.64761245 0.6732415 0.5716874 0.693318 0.71920335 0.6790786 0.72297496 0.6755805 0.6475899 0.59963095 0.8170758 0.7705528 0.73415613 0.6971895 0.68679416 0.65559965 0.640199 0.637135 0.754023 0.82818425 0.82300085 0.78621435 0.642652 0.63154906 0.6646778 0.73047477 0.7865092 0.7990594 0.5200503 0.5228703 0.42068344 0.38939282 0.50622267 0.3350895 0.23896173 0.18598267 0.478956 0.2295568 0.37118536 0.27257672 0.19869901 0.2676516 0.14240757 0.24622595 0.08674809 0.18364978 0.1613714 0.46448356 0.45592847 -0.032124188 0.43251762 0.44895554 0.18043146 0.15101063 0.4289642 0.08894452 0.020638084 -0.13770023 -0.11882983 0.4460925 0.49081025 0.5042766 0.049858756 0.0148394 -0.030056909 -0.10370821 0.20947476 0.60545194 0.619757 0.571826 0.642424 0.45681435 0.07016607 0.033122726 -0.09415607 0.3361546 0.70274407 0.6492961 0.650208 0.5756806 0.57105076 0.502669 0.75480485 0.61115766 0.59426856 0.5288723 0.4756824 0.54707867 0.6429703 0.73647845 0.7580308 0.7524385 0.63388133 0.6790164 0.70096934 0.51510817 0.49556494 0.6286339 0.5777715 0.5444733 0.51626384 0.63904333 0.6493821 0.619617 0.5794182 0.54602325 0.64106834 0.6536939 0.63100135 0.56135964 0.64709854 0.6103998 0.58446693 0.2937383 0.29762253 0.41737866 0.3831309 0.40111595 0.0738291 0.18483332 0.060518432 0.24222647 0.2534948 0.16005495 0.025664408 0.07773132 0.17782962 -0.056503735 -0.13468844 0.36180335 -0.09042369 0.3638579 0.36674726 0.07150534 0.35587072 0.40370148 0.41761583 0.5272188 0.4897793 0.3298174 0.2625637 0.15930146 0.18655287 0.094974495 0.011814948 -0.03964588 0.6148186 0.5721528 0.3686974 0.33613676 0.30752608 0.16242461 0.39786303 0.6535339 0.53623176 0.5397095 0.46195558 0.6599033 0.6788338 0.44027802 0.51170844 0.598902 0.6390163 0.48209608 0.4481781 0.42374963 0.5986135 0.6113513 0.44589376 0.58739257 0.61031353 0.4378296 0.6161575 0.43654692 0.35674846 0.6017814 0.5376354 0.24720894 0.5820485 0.03873969 0.44563392 -0.05106865 0.022660337 0.017834678 0.05426912 0.3009359 0.38815144 -0.00779254 0.15294331 0.07499304 0.31817013 -0.10204744 0.36595923 0.28793606 -0.12695213 0.009475976 0.22351387 -0.087542795 -0.19694707 0.2558077 -0.08233362 0.28668347 -0.0108479485 -0.005499773 0.28417614 0.04232716 0.08075976 0.37028983 0.17970075 0.27097687 0.46254075 -0.070494354 0.09744234 0.2641395 0.42810443 0.4512991 0.025144942 0.2673684 0.372629 0.38894704 0.34103298 0.2749318 0.18929228 0.4116622 0.3788926 0.4421195 0.4800325 0.4272943 0.34365624 0.22479579 0.48246115 0.37463707 0.4264452 0.4932701 0.49047154 0.5675893 0.61253566 0.62700355 0.4529052 0.5071801 0.5520699 0.5914482 0.56941473 0.3829592 0.5168234 0.28266054 0.53057605 0.5177058 0.30004498 0.55865747 0.30343628 0.5306045 0.49586448 0.057501942 -0.27322084 0.28835645 0.28633708 -0.09500249 0.3251762 0.3837642 -0.27488896 0.412279 0.41064307 -0.13502914 0.38160855 0.3933955 0.6288855 0.5881839 0.4809214 -0.20965558 0.33731738 0.33342075 0.65906143 0.54721534 0.49386388 0.31501195 -0.26799342 -0.12864138 0.74739754 0.61862767 0.5237247 0.4356881 0.33171153 0.18327448 0.09644734 0.709686 0.58233404 0.49089924 0.33803117 -0.1395203 -0.13217933 0.67681843 0.5403995 0.3851273 0.26271123 -0.12996326 0.5321096 0.40459734 0.1810957 -0.1276642 0.41305315 0.5582195 0.6350439 0.09098023 0.19093728 0.52699244 0.630964 0.7119446 0.47336972 0.6613262 0.71387285 0.35646653 0.6297487 0.626752 0.42231506 0.38391808 0.09938235 0.18574962 0.31643268 0.39150295 0.35538682 0.18536685 0.12933534 0.07106875 0.13375637 0.4525795 0.50178665 0.40272146 0.34797683 0.038535237 0.30123332 0.3243481 0.33770904 0.47662702 0.5057999 0.16730763 0.40175354 0.43909383 0.39172083 0.61294913 0.62884307 0.62142193 0.46774822 0.54596776 0.6038536 0.6225585 0.62043047 0.5666268 0.53788304 0.14234853 0.40895134 0.222265 0.43277973 0.37384003 0.20379478 0.24312992 0.26181984 0.32108992 0.3352396 0.37845 0.3570946 -0.30698568 0.3978296 -0.25705364 -0.2640915 0.37585947 0.6927673 0.6126075 0.51024306 0.36195603 -0.28515077 -0.26845482 0.26978815 0.75930417 0.69186425 0.33516917 0.14292942 0.09682314 -0.4159274 -0.2742896 0.7835016 0.78858674 0.053163543 -0.11434874 0.7836976 0.74298 -0.11292381 0.73331 0.68074524 -0.1278838 0.58367515 0.6307609 0.3255337 0.39659172 0.59765947 0.6687038 0.70138764 0.037189856 0.675975 0.73458034 0.7913219 0.08272078 0.7456822 0.34573 0.2596979 0.6230718 0.6828902 0.2773211 -0.019087158 0.2032159 0.28757524 0.2940627 0.16829495 0.008069356 0.3582965 0.4097435 0.19080813 0.25500897 -0.033934586 0.26253307 0.3133008 0.26786947 0.15673235 0.5135782 0.56958497 0.61880577 0.5918095 0.44655144 0.48881605 0.5832634 0.50719684 0.42515087 0.18118584 0.38416845 0.18554941 0.03866741 0.09979464 0.07112655 0.13829337 -0.010810114 0.30479336 0.31160274 0.29772025 0.023803335 0.32682782 0.017975286 0.3157463 -0.10779482 0.32049537 0.71714604 0.73071706 0.69789064 0.53542376 0.30216488 0.05677824 -0.34068576 -0.28588527 0.7406033 0.7347281 0.76478523 -0.1061324 0.7835151 -0.10473435 -0.11443904 0.7437351 0.6783478 -0.1642841 0.34462517 0.5985568 0.6304591 0.5231896 0.2979557 0.67317986 0.71826005 0.1181205 0.10226183 0.7705255 0.12803155 -0.031496245 0.8321924 0.20363688 0.7623583 0.18270189 0.5417855 0.63627493 0.1088608 0.26982087 0.2582386 0.2179765 0.04190606 0.019217007 0.16399258 0.18986204 0.07554839 0.17472164 0.36958224 0.33726695 0.25374317 -0.0992908 -0.081454776 -0.091783695 0.1589073 0.012447678 0.1176687 0.014310122 0.2029265 0.23331252 0.378011 0.38565683 0.27089456 0.50091755 0.52760005 0.4546144 0.5633522 0.5675304 0.49143314 0.6367658 0.54958 0.43506366 0.47324714 0.59615296 0.5542357 0.42905068 0.3897624 0.38634297 0.4212126 0.27856308 0.29483396 0.17649975 0.25922588 -0.0070357323 0.24180919 -0.07249664 0.12680505 0.21295598 0.12663735 0.22093783 0.19028008 0.2084972 0.18041357 0.10365496 0.23816818 0.18342137 0.20135942 0.33093232 0.22074708 0.1612797 0.40674585 0.42951304 0.1536546 0.10686048 0.29811883 0.4003284 0.43242097 0.69802 0.694504 0.6780262 0.21375823 0.7166705 0.68711483 -0.10461347 0.7250502 0.6885879 -0.09167497 0.7582323 0.7500106 -0.14861602 -0.19012928 0.45766568 0.43593597 0.5973662 0.14053385 0.6678033 0.71703064 0.3391812 0.6873724 0.28094977 0.61142224 0.71830416 0.14228696 0.48274127 -0.1496829 0.19937778 0.2797239 0.32463604 -0.039367966 -0.006964825 0.14912343 0.37703967 0.4294458 0.25777507 -0.041289724 -0.12571214 -0.13494429 0.44246715 0.45455635 0.43178695 0.38996017 -0.121107586 0.007833473 0.01632385 0.07442033 0.057220906 0.28360936 0.2848506 0.2559967 0.16684122 0.099218056 0.42027324 0.38499808 0.4308782 0.38032335 0.26188642 0.5653107 0.55046433 0.4904619 0.38095698 0.6355494 0.66255814 0.6609574 0.6608366 0.5617441 0.5062732 0.6900914 0.69018435 0.6794803 0.6458778 0.3594017 0.22564769 0.19231741 0.19701338 0.17954054 0.5143643 0.5128132 0.16829942 0.4959196 0.42568353 0.20310703 0.42443347 0.26860076 0.13651668 0.24098438 0.3480499 0.4932141 0.5975849 0.62605774 -0.2843297 0.1812912 0.33493206 0.4795496 0.5917648 0.6249894 0.21316198 -0.29062253 0.20181185 0.4455846 0.54808587 0.58174723 0.23941495 0.341859 0.25519648 0.41341475 0.4261723 0.26423362 0.2520409 0.446293 0.44244188 0.41615927 0.4417851 0.44226873 0.6623813 0.62866724 0.03721215 0.2904227 0.6427111 0.59486175 0.5611392 0.40331656 -0.02880612 0.12745774 0.66497076 0.44555998 0.70054746 0.6035073 0.458794 -0.15513644 0.27824765 -0.14076369 0.22813436 0.32888114 0.29124588 0.45209968 0.5127172 0.35351717 0.45217788 0.23579867 0.46270525 0.067509465 0.25438356 0.072831295 -0.005538737 0.05149879 0.21998253 0.021876886 0.01148708 0.08461561 0.36264226 0.40932178 0.28148368 -0.0180652 0.46064186 0.49424663 0.42582214 0.39211398 -0.13442072 0.02132408 0.45648432 0.15260585 0.070802554 0.05852527 0.47669712 0.44000804 0.28646672 0.1889835 0.11847288 0.056774624 0.50851476 0.4836601 0.4219736 0.39709264 0.21816318 0.12310528 0.52716935 0.5347861 0.51303667 0.37178403 0.26915845 0.64159644 0.47540626 0.6681514 0.68770605 0.6772406 0.663434 0.6018795 0.52753204 0.6409185 0.63719267 0.59936345 0.08701193 0.144014 0.1881681 0.08832278 0.5745397 0.56772566 0.5590133 0.4835942 0.13075049 0.08903545 0.54422474 0.5448837 0.53613394 0.45071128 0.109626085 0.5119249 0.49390906 0.18186365 0.25121456 0.3382411 0.52428925 0.57538855 0.46670473 0.4125416 0.3137295 0.48241538 0.6286704 0.6326597 0.6256257 0.6290268 0.15545557 0.5538553 0.59244263 0.23961142 0.23823674 0.2593246 0.25413758 0.39284432 0.23901135 0.41819897 0.16264728 0.4172411 0.43032894 0.33315587 0.38321102 0.50075704 0.09482919 0.23830844 0.4720986 0.3278595 -0.1875514 0.1677122 0.003977865 -0.09398677 0.0328756 0.0810141 -0.04504013 -0.010168731 0.27950758 0.20870247 0.34491444 0.2817265 0.27249935 0.15941441 0.1256567 0.14601141 0.09281948 -0.074304335 -0.052302584 0.23433584 0.10592124 -0.08684362 0.051067688 0.38364917 0.43392166 -0.06172502 0.2675425 0.30293924 0.31570807 0.26042292 0.2041783 0.2991365 0.3693669 0.5430193 0.50908196 0.4630186 0.33060843 0.17364861 -0.18646729 0.27742636 0.36673504 0.37949616 0.34441462 0.2576691 0.29138154 0.37722373 0.40909928 0.42513028 0.46657944 0.29855698 0.058268964 0.20670977 0.35536027 0.41621596 0.37472004 0.34380212 0.30034733 0.36158276 0.41982508 0.44201052 0.43239713 0.2816351 0.2496423 0.03341925 0.11398691 0.34709534 0.47354186 0.4237606 0.3568901 0.2996968 0.29907048 0.39181983 0.40909186 0.41377363 0.4443506 0.35005102 0.015958786 0.056463137 0.16973926 0.3738023 0.45531398 0.5276669 0.49365067 0.41559952 0.34309876 0.26939416 0.29202786 0.3317629 0.3743009 0.37965524 0.3807664 0.47723627 0.14528972 0.45990103 0.50516635 0.47167817 0.32415935 0.35723832 0.56936723 0.6121279 0.36849496 0.620525 0.6184667 0.566252 0.48055077 0.59795964 0.58047783 0.5763547 0.5831392 0.37765035 0.48291218 0.45496008 0.55173707 0.47641736 0.0942389 -0.09879712 0.5897726 0.5767816 0.47749174 0.145746 0.028440142 0.028402708 0.5581559 0.56323177 -0.016761526 0.063366294 0.11415155 0.15133616 0.3704539 0.5344379 0.51647127 0.2580436 0.35100406 0.50634295 0.5711761 0.5891374 0.44725627 0.6040162 0.6207324 0.17825875 0.6153388 0.56728405 0.2203742 0.41916734 0.21449135 0.1241677 0.36012435 0.09044422 0.29840612 0.33174634 0.24688298 0.27682167 -0.12281743 0.12120313 -0.24433237 -0.09939341 0.05678549 -0.28813666 0.10673185 -0.05382268 -0.065724745 0.10765217 0.33230278 0.3020046 0.09199312 0.36532328 -0.14569482 0.35079148 0.33331034 0.24262086 -0.2716931 -0.18941484 0.15071599 0.080605105 0.11071444 -0.24615267 -0.2745203 0.059106633 0.38409704 -0.3475044 -0.20154761 -0.37514085 0.18423584 0.12966518 0.17742182 0.513138 -0.043042615 -0.37476775 0.2148537 0.27111566 0.19664748 0.14210713 0.23001468 0.28538668 0.30629626 0.32069367 0.5998045 0.2752241 -0.16881222 -0.16430286 -0.0037529022 0.23864084 0.35111833 0.3717839 0.54210764 0.35044792 0.010539964 -0.032245383 -0.11930309 0.03517516 0.11051923 0.45309335 0.5055814 0.57653785 0.14469558 0.46592104 0.52151924 0.60250497 0.31285498 0.1802586 0.24359521 0.11728634 0.4488194 0.58546394 0.41186586 0.004598014 -0.09596458 0.11095515 0.1506995 0.421147 0.4938651 0.4709966 0.31633344 0.19646129 0.17751212 0.26378453 0.3072696 0.3420962 0.35900384 0.4020859 0.4447829 0.5603483 0.5425532 0.28246439 0.30332983 0.31975254 0.34394038 0.38789696 0.57921994 0.546847 0.4676134 0.49558818 0.5024606 0.31067955 0.5297311 0.51668584 0.5222138 0.4581623 0.50346243 0.4093821 0.50710934 0.45260525 0.30007085 0.07700807 0.1124999 0.25296685 0.58889544 0.5765306 0.5676652 0.0058392063 -0.00720153 0.59027207 0.077352926 0.10250128 0.117883295 0.37798747 0.46932262 0.5550629 0.32161248 0.52099216 0.5895473 0.46083948 0.6070049 0.26068437 0.5834051 0.028990164 0.4693206 0.49243852 0.36142308 0.08775576 0.183314 0.043806463 0.20136563 -0.050298538 0.20259193 0.19869314 -0.09768439 0.21443638 -0.24253559 0.09503818 -0.2360672 -0.070266545 -0.25606605 0.0645394 -0.023500472 -0.27202904 0.084652275 0.099552386 0.28200987 0.23436466 0.15263669 0.27232912 0.31279802 0.12630135 0.28567523 0.31822854 -0.018341847 0.33317098 -0.41860658 -0.24846412 0.34898758 0.35561877 0.30028346 0.2574649 -0.019516036 -0.11361562 -0.2975899 0.19108486 0.285627 0.33210817 0.32533354 0.27792045 0.25484866 0.23566838 -0.006054789 -0.113805786 0.25743502 0.16870105 0.17713068 0.18744561 0.23358789 0.25773585 0.14489149 0.03318982 0.06654544 0.13176085 0.18128613 0.22945675 0.3039809 0.21255794 -0.33225548 0.053984318 0.25424868 0.22212757 0.22455597 0.5396902 0.29731855 0.3724559 0.4372074 0.49072826 0.06765678 0.47427306 0.5750754 0.6625282 0.23030832 0.14084986 0.10441958 -0.03643799 0.70430636 -0.028854929 0.13689636 0.57891333 0.6931461 0.7156739 -0.022512818 0.1602349 0.4378658 0.3071619 -0.020392418 0.12545133 0.17586695 0.44100708 0.4831618 0.62573004 -0.14282146 0.15948784 0.27292094 0.22052617 0.2526725 0.42218083 0.5195576 0.60663795 0.4931771 0.30982617 0.4101689 -0.08022268 0.028290138 0.11342031 0.35323668 0.33397257 0.31139892 0.26011282 0.3777182 0.43543363 0.5287689 0.5482309 0.2324437 0.16527082 0.15333803 0.26039845 0.3639549 0.49768114 0.46952128 0.3930784 0.52513516 0.46153277 0.33606082 0.16204123 0.11165579 0.15208644 0.26062834 0.5826148 0.5576199 0.18259177 -0.03708925 0.0016869307 0.5877554 0.037031986 0.07244931 0.09048356 0.082413524 0.10341263 0.264495 0.368337 0.4466226 0.572827 0.49650064 0.5519547 0.40907615 0.56440824 0.51895106 -0.04305409 0.11267498 -0.21619385 0.17668273 -0.31697774 0.19501376 -0.27922744 0.17260072 -0.18013957 0.14869642 -0.26299345 0.09985751 -0.24805912 -0.23917142 0.001287289 0.390745 0.28379965 0.026790464 -0.27277815 0.35669726 0.25727686 0.07291656 0.09240946 0.2681749 0.28313595 0.10574047 0.22601448 0.14745745 0.17913586 -0.044158205 0.22354445 -0.36081797 -0.3977481 -0.5666247 0.22679506 0.36591625 0.36200106 0.34211618 0.4323549 0.3867557 -0.075501405 -0.24832207 -0.37006277 -0.55618775 0.3071974 0.24865049 0.31232047 0.33541244 0.52847034 0.41093862 0.23810913 0.2182483 -0.3935775 0.14690802 0.06316081 0.19672093 0.28021246 0.31377837 0.4369755 0.3340491 0.21147224 0.18589509 -0.007383682 -0.024169333 0.26255906 0.25069642 0.20627573 0.13675405 0.26075774 0.37918478 0.4623609 0.39653203 0.5625817 0.6769353 0.5816767 0.22874686 0.15360178 0.70918024 0.7171171 0.5999335 0.5617092 0.5115656 0.24438065 0.17850433 0.14222911 0.73323 0.06002929 -0.06436268 0.034224994 -0.1439594 0.7340349 0.11688845 0.10059178 0.28626084 0.3000678 0.6551341 0.6942268 -0.18742576 -0.14474078 0.1480726 -0.059197094 0.38475674 0.48692626 0.62954885 0.6778703 -0.049613982 0.059450164 0.19373898 0.23791696 0.12760948 0.41696838 0.40476936 0.38066185 0.5888411 0.63619626 0.6354258 0.17631313 0.17633918 0.42326343 0.34129038 0.48862278 0.5289716 0.40820345 0.36487618 0.54029787 0.5888712 0.62230897 0.54798484 0.5993321 0.62192434 0.6191353 0.2381011 0.30239415 0.43386006 0.48272353 0.41066748 0.2975148 0.217053 0.3555116 0.5656166 0.53443384 0.46792918 0.29320323 -0.037179857 -0.026693985 0.5850636 -0.004567571 0.039921366 -0.1014975 0.007005364 0.18637753 0.37858194 0.394629 0.5849312 0.46068895 0.2533225 0.1101996 0.10736857 0.13235757 0.17943099 -0.28220835 0.20156322 0.061521843 0.18375848 0.08572743 0.03946909 -0.36325628 0.15550089 -0.046516627 0.03778572 0.12854815 0.40754658 0.39099914 0.31891745 0.15411761 -0.010079309 -0.25785965 0.0708517 0.41441262 0.40416104 0.23747943 0.04368721 0.3784969 0.37560126 0.064449154 0.26591593 0.05080636 0.262649 -0.005588688 0.12190553 0.2548049 0.34371105 0.42337286 0.3170174 -0.3830071 -0.37143242 -0.6188227 0.31915116 0.31079704 0.5169265 0.46521384 0.21128686 0.13536775 0.2984697 0.42980552 0.4860009 0.49805987 0.589955 0.5737826 0.05152639 -0.43686566 0.46225527 0.61598146 0.56082743 0.42175448 0.19720611 0.16305536 -0.36594844 0.333001 0.5352191 0.4278602 0.34607506 0.24549603 0.13537745 -0.14467385 0.05982043 0.06569526 0.14236292 0.19300771 0.55056286 0.47891966 0.41259927 0.28183925 0.5274257 0.65376353 0.6391244 0.630366 0.5856454 0.5470879 0.40234336 0.24186411 0.659681 0.69786334 0.62297714 0.63915336 0.61999804 0.58214283 0.5000509 0.45728216 0.20545377 -0.2876539 0.70555687 0.6016673 0.58893204 0.53285307 0.4845301 0.42958915 0.124554 0.08237885 -0.27998835 -0.30943343 -0.05817174 0.71002865 0.4203416 0.07393725 -0.16645938 0.21619019 0.6978934 0.7056535 0.18502812 0.13148832 0.0141871795 -0.15951489 -0.12235627 -0.13973865 0.36992604 0.2789645 0.20430624 0.6861647 0.694094 0.2201174 0.1611214 -0.0022448897 -0.07402302 -0.02583731 0.07802273 0.059752066 -0.02579548 0.27387613 0.37502384 0.41063252 0.39127564 0.3251895 0.50977045 0.6374337 0.6598908 0.6701009 0.074184015 0.14737606 0.090578154 0.054153 0.05289337 0.03294796 0.08596665 0.10315107 0.17742407 0.18134847 0.18184522 0.34299976 0.35793355 0.2688437 0.4833171 0.46786684 0.39695883 0.5242933 0.5722885 0.6417513 0.57323766 0.54083884 0.52529866 0.56091774 0.59744406 0.6901196 0.6601882 0.5923532 0.6804506 0.6824757 0.6969979 0.68696463 0.5715859 0.31571946 0.34632105 0.4034569 0.41404626 0.39907882 0.669564 0.69093025 0.65402657 0.5501101 0.13880703 0.26493937 0.35728368 0.28832418 0.5824225 0.6175036 0.49385005 0.5167823 0.46917975 0.19560888 0.12815298 0.23958886 0.4427485 -0.09263888 -0.07030608 -0.021902785 -0.045397066 0.27635917 0.5391628 -0.1538862 0.34057996 0.35495257 0.14217547 0.06930372 0.23271105 0.17281656 0.1109748 0.109501496 0.12551951 0.050595634 0.17671043 -0.028272025 0.022967055 0.20255996 0.01308137 0.059693005 0.19585149 0.18346317 0.0036406256 -0.0047141984 0.14138873 0.10535199 0.378749 0.38017035 0.08606413 0.3845921 0.122927524 0.346389 0.11740438 0.12494006 0.3173933 0.07959867 0.11924879 0.2688554 0.034226857 -0.044927612 0.08081767 0.14594488 0.18985139 0.44245926 0.30378765 -0.42605293 -0.3035841 -0.34448183 -0.5998056 0.11769428 0.2875011 0.4389637 0.501742 0.5279281 -0.36114562 -0.33854598 -0.54503906 0.35649246 0.39297885 0.526298 0.5408009 0.6259675 0.61380255 -0.029199753 -0.11944002 -0.46854326 0.4847835 0.4394489 0.63972986 -0.011968705 -0.05948914 -0.40849808 0.19097057 0.6044589 0.5024301 0.40120196 0.34105855 0.21002583 0.10322446 -0.1572912 -0.2456997 -0.3012316 -0.28077534 0.029140051 0.29948318 -0.054066308