# vtk DataFile Version 2.0
Really cool data
ASCII
DATASET POLYDATA
POINTS 6378 float
-90.59887 62.93883 15.029636
-90.584236 62.941334 15.512789
-90.65978 63.589466 14.943587
-90.6316 63.526344 15.474839
-90.57735 63.417637 15.839194
-90.56181 64.11534 14.381615
-90.61299 64.02117 15.580832
-90.671974 77.340195 8.103139
-90.77024 77.80764 6.8967924
-90.9153 77.74529 7.5940967
-90.89784 77.87924 8.26704
-90.79442 78.3702 6.8346634
-91.056335 78.367805 7.607069
-90.91651 78.35082 8.319751
-90.65848 78.28296 8.787322
-90.70821 78.935814 7.091935
-90.82855 78.935394 7.5717278
-90.844154 78.826225 8.13241
-89.624084 62.23887 12.660758
-89.76675 62.148975 13.39103
-89.96304 62.195267 14.191636
-89.932594 62.100998 15.423792
-89.72621 62.183445 16.167347
-89.80718 62.891773 12.694225
-90.06784 62.695435 13.385156
-90.259 62.48698 14.54749
-90.371284 62.67736 15.458829
-90.09466 62.755035 16.240097
-89.87898 63.24425 12.752574
-90.34714 63.79667 13.5589285
-90.227684 63.543438 16.31251
-89.89879 63.756596 16.613497
-89.857 64.39931 12.689368
-90.29393 64.52009 13.610774
-90.42473 64.382484 14.44877
-90.453926 64.35675 15.465384
-90.2069 64.21474 16.091164
-89.85709 65.58531 12.918356
-90.09984 65.46386 13.598496
-90.163536 65.27862 14.17219
-90.0475 65.12524 15.094885
-90.014336 64.77201 15.819877
-89.73687 65.739334 13.0674715
-89.89729 65.80409 13.703375
-89.837395 65.783226 14.150374
-90.07272 77.04004 6.8285365
-90.40963 77.113625 7.5264063
-90.13815 77.032135 8.34064
-89.77906 77.189575 9.047493
-90.122795 77.75415 6.147579
-90.42623 77.68086 6.4595456
-90.575165 77.47669 8.477534
-90.248856 77.79616 9.090058
-89.66323 77.895065 9.669789
-90.1382 78.403946 6.099045
-90.53244 78.50805 6.4515834
-90.389595 78.48676 8.985496
-89.9642 78.871635 6.1857543
-90.29322 79.001175 6.6588373
-90.4307 79.280075 7.487638
-90.47964 79.16918 8.229154
-90.26629 78.889046 8.905904
-88.736595 60.18612 8.747898
-88.751884 60.018555 9.346708
-88.784584 61.086933 8.142356
-89.034164 60.672623 8.807333
-89.266495 60.84477 9.425572
-88.910774 60.62896 10.42583
-88.66423 61.01354 11.712436
-88.98929 61.41413 15.228882
-89.11999 61.274673 8.577212
-89.368324 61.242035 9.538557
-89.35208 62.08382 12.654559
-89.55453 61.73801 15.391642
-89.42447 61.98735 16.187616
-88.535446 62.384953 4.4911733
-88.69274 62.5658 5.735656
-88.97604 62.888382 7.1332383
-89.006676 62.299797 8.571008
-89.23244 62.394066 9.385234
-89.31227 62.210823 10.239827
-89.25303 62.259968 12.117495
-89.5921 62.410694 16.48995
-89.29505 62.488068 16.72827
-88.8946 63.638752 4.8404202
-89.13341 63.69737 5.5254836
-89.1717 63.723045 6.087513
-89.21954 63.1535 9.354302
-88.98643 63.37127 10.405061
-89.26252 63.416626 16.96987
-88.763176 64.38425 4.776907
-89.08078 64.42048 5.4484944
-89.19756 64.48136 6.449969
-89.054115 64.04449 7.979347
-89.07522 64.69759 8.075043
-89.066246 64.42982 9.292507
-88.95506 64.65376 10.486681
-89.624985 64.8666 12.275845
-89.49895 64.56351 16.363117
-89.24282 64.24411 16.719215
-88.72174 64.94655 5.221743
-88.95503 65.21381 5.8357997
-89.02046 65.13148 6.1742234
-89.07348 65.28688 7.295029
-88.890656 65.248505 8.395188
-89.34732 65.0282 12.162074
-89.001305 65.61455 12.375385
-89.44696 65.39652 15.2121935
-89.33924 64.7476 16.32537
-88.83537 65.981186 6.9243884
-88.792694 66.04935 7.177743
-89.31077 66.00838 12.788262
-89.35922 66.2525 13.8104315
-89.630775 66.027176 14.0913105
-89.16175 65.727715 15.004828
-89.56217 77.16579 6.258634
-89.44832 76.89331 6.645818
-89.4713 76.54337 7.820486
-89.47118 76.669 8.477259
-89.27218 76.986755 9.411739
-89.41438 77.65621 5.872348
-89.29324 77.611404 9.9029
-89.53206 78.43707 5.803478
-89.67293 78.731155 9.509811
-89.21257 78.241936 10.072755
-89.55742 78.93533 6.0571213
-89.67537 79.44855 6.815117
-89.257095 79.70382 7.77783
-89.7214 79.67382 8.113453
-87.78411 57.87666 12.921338
-87.798035 57.965195 13.730543
-87.75607 58.065357 14.150705
-87.97247 59.405083 9.235004
-87.92535 58.73778 12.485587
-88.102974 58.637585 13.358454
-87.65737 58.89314 14.459934
-87.88234 60.03644 7.9528575
-88.37843 59.867134 8.873448
-88.35672 59.74227 9.442505
-87.7847 59.657715 10.845259
-88.09699 59.084488 12.682137
-87.647255 59.195652 14.488372
-87.86039 61.057583 4.478295
-87.88222 61.006718 5.238331
-88.57351 61.016674 7.8248124
-87.764534 61.780266 3.1387885
-88.11171 61.758972 3.7166908
-88.23206 61.673885 4.231452
-88.30906 61.682774 5.329054
-87.96607 61.356766 7.080081
-88.85921 62.090706 16.530838
-87.94291 62.65352 3.2580736
-88.29945 62.55087 3.7431679
-88.3384 63.14599 3.8746467
-88.40349 63.135445 4.42384
-88.27451 63.31263 16.96363
-87.9621 64.24482 4.019509
-88.34556 64.715126 4.556072
-88.87154 64.43657 16.687433
-88.39236 65.23424 4.993026
-88.43192 65.65091 11.520832
-88.825195 65.40221 15.505732
-87.992004 65.79162 5.1807775
-88.21927 66.05911 5.66013
-88.39042 66.35309 6.232647
-88.51201 66.20999 8.552894
-88.2216 66.1879 8.983739
-88.10796 66.817566 11.114457
-88.64692 66.33264 14.313017
-88.64387 65.77012 15.120454
-88.15034 66.76173 6.859381
-87.71457 67.3496 7.490188
-87.781166 67.61628 9.359665
-88.039055 67.253136 10.521347
-88.185036 67.44221 11.564165
-88.20355 67.45327 12.356063
-88.20013 67.14454 13.106172
-87.62411 68.11714 9.897575
-87.71422 68.544846 10.887627
-87.80983 68.056915 11.544775
-87.74489 68.13263 12.411257
-87.723465 67.81155 13.066359
-88.25297 76.29994 6.763921
-88.05141 76.22528 7.4093003
-87.98565 76.322586 9.106532
-88.50221 76.81952 6.182321
-88.30679 76.549515 6.4456496
-88.562096 76.613754 9.379678
-88.520256 76.932625 9.860486
-88.448616 77.50365 5.721607
-88.4726 77.81463 10.462917
-88.51924 77.94655 10.585844
-88.68434 78.50963 5.7616787
-87.87678 78.37594 10.63997
-88.57222 78.828636 5.901059
-88.43211 79.356094 6.5067363
-87.829445 79.79772 11.316757
-88.11884 80.10824 7.4662786
-87.800934 80.409355 11.40572
-87.705376 80.55134 11.7555685
-87.67364 81.2494 10.635464
-87.72136 81.63679 11.038976
-87.63542 81.00564 11.761181
-87.8704 82.95435 9.737513
-87.71261 82.53227 10.525095
-87.64173 82.08272 10.977699
-87.70285 83.43277 9.59552
-87.64794 83.56086 10.189755
-87.605515 83.83224 9.502315
-86.973274 57.08656 12.697517
-87.145935 57.075356 13.487976
-86.87373 57.00284 14.16079
-87.59613 57.827354 12.419736
-87.557526 57.52673 13.277518
-87.43875 57.770664 14.397924
-86.983765 57.807907 14.942862
-86.9663 59.263336 8.631297
-87.70376 59.261356 9.449127
-87.48789 59.228523 10.019631
-87.560165 58.41475 14.658545
-87.26912 58.38535 14.994088
-86.79346 60.359016 3.566046
-86.87375 60.41299 5.5084796
-87.49726 60.239994 7.628068
-86.942894 60.98505 2.8702128
-87.222374 60.8004 3.5141833
-87.44548 60.677094 4.43196
-87.55744 60.776855 5.0024757
-86.86448 60.50821 6.631044
-87.58661 61.241035 14.9797535
-87.24611 61.532974 2.8521423
-87.717995 61.746464 15.683748
-87.203514 62.358974 2.7797635
-87.08146 62.69987 16.4811
-87.80513 62.896435 16.837648
-87.45009 63.19565 3.1489198
-87.42298 63.728714 16.790464
-86.94478 63.85376 3.1962738
-87.440605 64.39236 3.8868692
-87.9917 63.927567 16.961683
-87.587654 65.08968 4.4682794
-87.372635 65.105225 16.337294
-87.66116 66.06874 5.1446033
-87.03801 65.68527 15.301021
-87.34209 66.9057 5.66889
-87.016464 67.60072 7.252439
-87.06697 67.471375 13.875787
-87.2055 67.92277 7.4013004
-86.90335 68.41674 8.184047
-87.560036 68.68421 10.896607
-87.351456 68.3076 13.138463
-87.09102 68.8188 9.686045
-87.29438 68.922134 10.861936
-87.08896 69.08664 11.567695
-86.93589 68.97442 12.4607115
-86.58998 71.563515 5.1069255
-86.78955 71.64189 5.6897
-87.04013 72.02558 6.5973186
-86.76387 71.66179 6.984915
-86.85495 72.814064 5.214767
-86.97878 72.53741 5.56621
-87.26774 72.76479 6.501613
-86.95488 72.56203 7.393187
-87.04641 73.39781 5.8014007
-87.29318 73.341125 6.654479
-87.16394 73.25216 7.0491724
-86.84013 73.37038 7.760595
-86.843 74.47123 6.4559875
-87.64014 75.94253 7.843946
-87.11074 76.009895 9.176278
-87.51589 77.01971 5.7192626
-87.43382 76.62914 9.471463
-87.2488 77.57805 5.4807167
-87.48991 77.75571 5.512755
-87.87396 77.36217 10.498269
-87.27559 77.85873 10.777573
-87.14279 78.232635 5.491303
-86.806564 78.17269 10.997881
-87.87045 79.104385 6.0519414
-87.56978 79.59007 11.5301075
-87.33503 79.970985 11.926268
-87.56068 80.44553 7.2215333
-87.23507 80.47462 12.0509815
-86.93861 80.659996 7.214764
-86.878365 81.33333 12.245554
-87.17574 82.951904 8.532057
-87.42674 82.2332 11.332806
-87.023346 82.426476 11.9543
-86.92341 83.24254 8.339857
-87.20522 83.50256 8.694237
-87.44631 83.64338 10.494978
-87.18086 83.36093 11.138628
-86.75581 83.172646 11.824094
-87.04714 84.04064 8.83095
-87.238846 84.205 9.543749
-87.04529 84.26392 10.325694
-86.88372 84.037834 10.97442
-86.79071 84.59908 9.894052
-86.85344 84.62378 9.94064
-86.1171 57.12873 12.026333
-86.44992 56.796665 12.817789
-86.39476 56.672024 13.492695
-86.42791 56.944645 14.243116
-85.6746 58.17465 8.820674
-86.2001 57.605408 10.578022
-86.58383 57.48011 11.658057
-86.51038 57.895912 15.165013
-85.812454 58.494675 8.0126915
-85.96513 58.543976 8.464516
-86.44658 58.530235 9.162336
-86.7184 58.28542 15.302757
-86.055046 58.837452 15.541906
-86.18312 60.22769 2.996415
-86.347305 60.164654 3.5084317
-86.177574 60.186405 4.9910016
-86.848816 60.10733 7.687825
-86.27564 59.879963 15.295447
-85.98542 60.751797 2.338186
-86.254845 60.646393 2.59277
-85.92897 60.11108 15.756119
-86.164536 61.492496 2.2133436
-86.59604 61.33016 2.4518042
-86.01516 61.40241 15.764549
-86.072655 61.580772 19.653835
-86.04303 61.814262 20.565853
-85.81729 61.80613 20.996712
-86.11233 62.41711 2.2383237
-86.73802 62.372536 2.5175207
-85.68664 62.54496 18.098751
-86.26956 62.457294 19.602844
-86.26589 62.635193 20.455477
-85.96788 62.599266 21.160675
-86.19829 62.952595 2.544935
-86.5979 63.882042 16.991903
-85.976 63.584232 18.442963
-86.206726 63.40775 19.915981
-86.16399 63.222317 20.567757
-85.98125 63.34945 20.996456
-86.018425 64.55792 3.5638847
-85.7551 64.04984 18.921223
-86.40886 65.00372 3.928123
[...]
POINT_DATA 6378
SCALARS features_00 float 1
LOOKUP_TABLE default
0.65478325 0.6931188 0.6670027 0.7053907 0.72182053 0.63033295 0.707491 0.83475983 0.94314533 0.9384208 0.85456014 0.91990876 0.9367917 0.8698682 0.7925079 0.8974567 0.91389984 0.8940783 0.28444743 0.37264138 0.53126276 0.6461288 0.6793611 0.35524735 0.4481442 0.5936816 0.6792096 0.71798253 0.40736356 0.5574991 0.74604917 0.75017905 0.4722461 0.5618597 0.6302092 0.6892934 0.71754014 0.45892102 0.53443116 0.5773555 0.610448 0.6592164 0.45463252 0.5116122 0.5290617 0.84908414 0.88770413 0.73263896 0.6263715 0.8474317 0.89570665 0.7771543 0.69475365 0.5804758 0.8359287 0.87778884 0.75802016 0.79855067 0.83940613 0.8665061 0.86682624 0.7784839 0.36850762 0.3687588 0.3757028 0.3987875 0.40717095 0.35222417 0.05414819 0.5856147 0.3951039 0.39634368 0.23581488 0.6192914 0.65422964 0.50377727 0.3800956 0.2535828 0.2979535 0.27578706 0.24788429 0.17063695 0.70649856 0.711167 0.45167488 0.4310918 0.40567434 0.16481957 0.11036629 0.7323905 0.44361454 0.43886626 0.3983277 0.22156695 0.24456282 0.10363978 -0.006017372 0.3785764 0.6585636 0.6813869 0.4369765 0.43520844 0.4250911 0.34631914 0.23035756 0.3249821 0.30331993 0.5471474 0.6183487 0.38713396 0.36775845 0.36332625 0.4243981 0.48479182 0.48346323 0.75587416 0.72837824 0.68196356 0.6119593 0.53395224 0.7491595 0.5145242 0.75948286 0.5861321 0.44885275 0.7459842 0.73535126 0.70408714 0.8049888 0.5795218 0.6030947 0.5944177 0.26617235 0.45214015 0.5626128 0.5088564 0.2615729 0.32994914 0.33057845 0.23369135 0.43220282 0.45778364 0.51078266 0.36122927 0.3422712 0.6305386 0.5831175 0.5404688 0.38630915 0.1894251 0.6403791 0.5664632 0.54446745 0.5036304 0.48570523 0.60865104 0.44827268 0.43318006 0.61830604 0.4260924 0.0792525 0.4533658 0.4109311 0.41894567 0.40913 0.23994783 0.163726 0.13746338 0.32897276 0.39043272 0.36020055 0.2544246 0.15950465 0.14447534 0.22267488 0.23629746 0.23047864 0.17396487 0.20999953 0.24548657 0.2604034 0.25036386 0.5722792 0.5566249 0.43281734 0.60325545 0.5780238 0.4571628 0.43241447 0.6062593 0.3456734 0.316583 0.64094955 0.17216727 0.6108314 0.5564922 0.30178237 0.4779751 0.36839634 0.38463223 0.40880334 0.45216477 0.40955532 0.66796297 0.54379797 0.48663443 0.74101424 0.6735358 0.7700385 0.55719125 0.6287916 0.6393093 0.517669 0.6128826 0.5988937 0.5585962 0.10365384 0.2269606 0.20139748 0.5421457 0.4966937 0.6202688 0.29496956 0.19982333 0.676043 0.6279731 0.5107957 0.4064551 0.09288495 0.17435113 0.6708344 0.41237655 0.6381623 0.38269937 0.54012144 0.53664184 0.4709327 0.4744165 0.4285829 0.54583454 0.39876494 0.37896556 0.39558184 0.14929648 0.36836368 0.23111121 0.17975748 0.18861127 0.09667374 0.20717418 0.25123438 0.14734669 0.19731067 0.2256282 0.229455 0.60569584 0.5953255 0.52623427 0.4633721 0.5515635 0.5748188 0.548537 0.41199243 0.5313452 0.5423048 0.49005854 0.3386681 0.44704562 0.43902537 0.26320538 0.38183737 0.34404957 0.35441032 0.43510684 0.29556745 0.10965002 0.39271873 0.034422237 0.47268826 0.2699853 0.32648683 0.36574957 0.37102407 0.20224114 0.39936352 0.6979875 0.48699427 0.48087436 0.71161747 0.7715811 0.6480083 0.576007 0.52403915 0.794394 0.78438735 0.7158111 0.6412715 0.7817223 0.77603227 0.43985048 0.5364069 0.5915694 0.6357517 0.017753113 0.059750307 0.3846842 0.50874686 0.030327719 0.006946251 0.006402729 0.44402042 0.22692113 0.65598005 0.619779 0.4423545 0.10465814 0.08656098 0.69823515 0.6873987 -0.008719968 0.72575647 0.7063345 -0.17492199 0.47957465 0.48660272 0.44717366 0.6681334 0.6642028 0.40109667 0.5126554 0.51925135 0.4663021 0.5615083 0.25290215 0.30989364 0.478805 0.4957868 0.46238163 0.32451224 0.33687878 0.33287084 0.33406475 0.19041073 0.2875646 -0.018509924 0.3233011 0.308956 0.09277323 0.19337736 0.1328751 0.12372014 -0.018742863 0.04033687 0.15560144 0.67249435 0.602484 0.45824158 0.38480365 -0.007533474 0.07983616 0.13985033 0.66538167 0.6168034 0.38017774 0.28466383 0.62055033 0.55797505 0.23708616 0.49532968 0.105350405 -0.07509212 -0.05621674 -0.003710663 0.34654465 0.40204492 -0.059827566 -0.052665584 0.18843004 0.22990498 0.07324448 0.16234352 0.009421879 0.11084825 0.028071575 0.19187447 0.19130176 0.2752418 0.34009093 0.31544036 0.3855986 0.3650348 0.5937907 0.45033845 0.40046734 0.6949518 0.5538134 0.49122572 0.7270875 0.77170134 0.7374674 0.60297894 0.5169019 0.78865147 0.8053943 0.7660148 0.58218163 0.39189982 0.31440282 0.50977194 0.3575326 0.29767004 0.4024742 0.44648483 0.55261827 0.573537 0.40142715 0.2478881 -0.010956652 0.6606134 0.61204934 0.4738924 0.013157781 0.1988378 0.71070814 0.69075155 -0.06824696 -0.14874874 0.29271305 0.3166294 0.3933813 0.32525495 0.28839463 0.73416674 0.3194608 0.39060885 0.2990414 0.6317792 0.41652417 0.32745963 0.49940592 0.42716166 0.38929695 0.3435465 0.22559929 0.36362892 0.11176595 0.11595993 0.22281012 0.23316619 -0.12886447 -0.067034855 -0.021988746 0.16557744 0.0014485749 0.052783087 -0.002881892 0.1405738 0.09076735 0.071161166 0.65783626 -0.07155384 -0.00087489747 0.09759495 0.12956294 0.68737346 0.6496414 -0.22723573 -0.019801527 0.025501989 0.09778526 0.68171996 0.018468581 0.029000089 0.025511224 0.059335012 0.6447881 -0.17198066 -0.0683346 0.04712584 0.5249011 -0.025649177 -0.21678063 0.09432243 0.28033003 0.24724576 0.15392557 0.22095004 0.19623634 -0.019821879 0.18249257 -0.11759893 0.117871895 0.20253097 0.29017696 0.21228799 0.29987937 0.33527583 0.45709327 0.39707386 0.59152675 0.4840713 0.69409484 0.680073 0.634368 0.51508033 0.7265912 0.75225365 0.75940436 0.70346594 0.6762737 0.5692781 0.47183952 0.6803403 0.6540022 0.5412915 0.44759598 0.38514614 0.5622072 0.55418557 0.62021077 0.55623066 0.26993293 0.313646 0.20365027 0.4760443 0.4919716 0.50540143 0.48770133 0.4341899 0.28239632 0.27821642 0.33638158 0.41801468 -0.13243836 0.19487567 0.2212797 0.65833426 0.47282237 -0.051784575 0.08381352 0.0928424 0.13852753 0.69995147 0.19873741 0.71853703 0.27235454 0.53112113 0.47394875 0.2591923 0.2430211 0.4981225 0.37406436 0.27106977 0.20889318 0.1901485 0.21411481 0.122475386 0.09892324 0.27219865 -0.050216816 -0.05255466 0.31148523 0.36502844 0.0216651 -0.0056752264 -0.08273363 0.20692304 0.3317372 0.40164512 -0.031517543 -0.20788708 0.078805245 0.0058648884 -0.03537903 0.63071007 0.40372625 0.15217832 0.09841551 0.671795 0.1527688 0.16628505 0.6388448 0.1313774 0.15749663 0.166533 0.5566164 0.10359958 0.14856488 -0.06475982 0.0299148 0.0677623 0.31775376 0.14459626 0.13816637 0.12410704 -0.028649313 0.121024095 0.09734448 -0.026590183 0.028437305 0.23897423 0.10842314 -0.07498588 0.3110066 0.19741882 0.21395233 0.17214838 0.35722816 0.51511806 0.42150545 0.41485426 0.571766 0.5949609 0.58285135 0.62098324 0.60481834 0.4024169 0.66030896 0.6666776 0.6937654 0.71294475 0.695951 0.59221435 0.452491 0.38286626 0.61439157 0.62876475 0.6285771 0.6848783 0.086834915 0.5290755 0.57890314 0.5939473 0.58358014 0.55971754 0.6141528 0.5901917 0.0274304 0.04104781 0.12572673 0.12255794 0.485588 0.47830668 0.3972246 0.24320476 0.30882522 0.34878328 0.20103167 0.22525644 0.15818395 0.30109724 0.51748973 0.242714 0.31424403 0.46807176 0.2640499 0.26175824 0.1856207 0.17389917 0.09688554 0.08740415 0.10998058 0.19799748 0.24669623 0.14127226 0.08272612 0.37747186 0.3617167 0.052863583 0.2692801 0.4237268 0.4662053 0.024384156 0.008501999 -0.017861085 0.25964123 0.37553167 0.45427784 0.51563454 0.16823253 0.1263333 0.4207148 0.48790586 0.5533354 0.3926865 0.27513885 0.11361681 0.5663816 0.35539582 0.14189896 0.10991183 0.44553602 0.3516512 0.15828367 0.13057122 -0.0028468426 0.07693584 0.15970457 0.17387249 0.15020075 0.18704331 -0.032680728 0.028842237 0.20193556 0.21286315 0.8556609 0.8440506 0.11230056 -0.017836336 -0.2151538 0.13652486 0.19671628 0.21032974 0.86834335 0.8614801 0.8548267 0.77638704 0.6347017 -0.038809918 0.033424612 0.11888389 0.13656467 0.86130023 0.843668 0.8330925 0.7943367 0.702142 -0.07899576 0.81247115 0.7820977 0.70285845 0.66700995 0.5965978 0.32445025 0.028862499 0.32248583 0.09642612 0.029011194 0.053499952 0.22878951 0.2874094 0.2823891 0.4242868 0.50881076 0.40390882 0.6851052 0.6562612 0.4939209 0.43002516 0.22123918 0.49871075 0.61725 0.6537335 0.6696063 0.6458347 0.5974559 0.1303711 0.2620439 0.37148008 0.5980011 0.53232074 0.5247212 -0.1326547 0.02102466 0.033816688 0.47838482 0.39685622 -0.010737792 0.38606846 0.32827416 0.06733115 0.16355364 0.07727745 0.31927645 0.2887407 0.25753132 -0.016839676 0.23582876 0.026793525 0.1484033 0.16827677 0.29594684 0.19185062 0.31500876 0.4522409 0.5067432 0.55040336 0.09475762 0.07369386 0.58627 0.6037097 0.03440641 -0.05931133 0.39026362 0.54871744 0.6076262 0.07909935 0.56489533 0.0725716 0.10471855 0.04621072 0.12994722 0.16331434 0.14395179 0.5637536 0.18998453 0.18370745 0.21167064 0.18630454 0.18761453 0.87651706 0.8613869 0.8009131 0.6011808 0.4740502 0.10361599 0.21175247 0.18332899 0.18636759 0.877348 0.876938 0.5113393 0.049704567 0.10446087 0.12533998 0.8583128 0.84502757 -0.29461542 -0.25715652 -0.055029504 0.05629155 0.14038879 0.1771644 0.83049524 0.8170572 0.7118236 -0.22532144 0.00033712387 0.10567947 0.19496222 0.20683536 0.6924608 0.6278357 0.5747136 -0.18235044 -0.038012423 0.16291979 0.22340587 0.19388506 0.14938867 0.066312626 -0.17459516 -0.06302419 -0.034931183 -0.014759444 -0.015902165 0.06543571 0.13382274 0.2070813 0.28022054 0.06543683 0.06822036 0.11298381 0.16121966 0.33059558 0.3221536 0.34040463 0.11369659 0.24740718 0.52694947 0.50053775 0.35637692 0.35927466 0.4477147 0.33080396 0.4752602 0.24394247 0.59138155 0.6945191 0.68232435 -0.09668135 0.39463246 0.50618696 0.14704409 -0.17828603 -0.036648653 -0.02849903 0.4224005 0.2590978 0.13466722 0.09814399 0.09097418 0.09433179 0.19157246 0.21132289 0.08668754 0.22505195 0.032343008 0.13467118 -0.03829439 0.17562598 0.1476529 0.03983005 0.06592801 0.22941457 0.124482274 0.01960167 0.16517183 0.47127193 0.123284444 0.59295547 0.5886716 0.6213175 -0.21646829 0.61651146 0.64387953 0.63395 -0.36555833 0.034546494 0.62459034 -0.183312 -0.078348465 0.10417081 0.1600254 0.18039113 0.7844516 0.74015343 0.4746329 0.40529054 0.17813078 0.17633502 0.850052 0.8289571 0.46505588 0.17638002 0.85701823 0.11036565 0.13170275 0.8441864 0.17698023 0.8238538 0.78250766 0.6866103 0.18511757 0.13417283 0.5783618 0.4906881 0.44567144 0.2788126 0.07318091 0.22838429 0.101922356 -0.008811913 0.11781365 -0.013325199 0.19655171 0.20406754 0.035690263 0.086413816 0.2997076 0.33333793 0.41151616 0.0075967163 -0.007520385 0.36748305 0.39570302 0.4475098 0.12537746 0.16048062 0.25718123 0.2729228 0.3105742 0.3827513 0.40156436 0.41651043 0.42267075 0.44114858 0.4305258 0.4393609 0.61837935 0.6216084 0.60672164 0.5664097 0.580996 0.5881684 0.5784848 0.48108748 0.51702857 0.21394113 0.22808272 0.18918453 0.096190326 0.59779537 0.67980707 0.6784281 0.20236182 -0.039416462 0.006063316 0.36254102 0.47422034 0.52093387 0.40857133 0.12946764 -0.18809089 0.31558123 0.057339787 -0.21816781 -0.21326703 -0.2410436 0.0780679 0.04098571 0.03261961 0.05957497 0.09503105 0.17034134 0.2702175 0.055597447 0.19909827 0.2576162 0.2918415 0.024597444 0.16130874 0.25597337 0.37178743 0.4667061 -0.1256851 0.21139069 0.4394069 0.53757435 0.005001016 0.3393935 0.38165882 0.53315604 0.56596947 0.6265923 0.6506657 0.036760084 0.5543025 0.6405015 0.42016304 -0.09984186 -0.2702959 -0.15024753 0.5785224 -0.1586348 0.5988747 0.5742099 0.5221414 0.5863592 -0.060286216 0.25961447 0.21165955 0.11720861 0.21128267 0.21381727 0.6151023 0.44948286 0.38077912 0.22458032 0.1540246 0.804096 0.74326384 0.16128281 0.8033168 0.7276639 0.11569191 0.81714004 0.76308215 0.60864127 0.056647245 0.31087625 0.14614521 0.102811925 -0.0871995 0.30111226 0.35534438 0.09509793 0.39007017 0.47304726 0.013259936 0.46887815 0.5567239 0.5958504 0.085696995 0.17910583 0.47076306 0.58034015 0.61138636 0.20334218 0.2539653 0.30206293 0.41281533 0.4213788 0.4360544 0.46691817 0.5506381 0.6260133 0.64142907 0.6273006 0.5845133 0.56867146 0.60183907 0.49926388 0.32427195 0.14859012 0.114447474 0.06040486 0.05110889 0.24991524 0.20959102 0.5313685 0.34339815 0.15842864 -0.57935965 0.073572256 -0.24987727 0.028684404 0.120376825 0.012375347 0.009487119 0.13275118 0.34805876 0.3815056 0.0020027086 0.4051211 0.41491556 0.3751794 0.45299017 0.5197706 0.47108346 0.36939216 0.54717875 0.58369714 0.586388 0.5351218 0.59231687 0.6165781 0.554121 0.3966257 -0.24806902 0.62955534 0.6452213 0.3946129 0.67327404 0.46679604 0.46827787 0.27557755 -0.12149472 0.56522423 0.66485846 0.6864326 0.569126 0.57248527 0.53101194 0.06158018 0.32938242 0.61142063 0.54861474 0.21035254 -0.0071989335 0.28638288 0.46627927 0.4793172 0.30766684 0.44058403 0.48673767 -0.051373996 -0.08384584 0.2319267 0.06835016 0.03380936 0.27562147 0.24329197 0.20958641 0.16139674 0.23387581 0.15035474 0.17546666 0.20751382 0.47144496 0.39707798 0.23752418 0.15347338 0.5587045 0.119761854 0.26833963 0.65870434 -0.06447547 0.533968 0.57748187 0.14282782 0.52176964 0.6377922 0.66823286 0.5136768 0.6920835 0.6804545 -0.17435998 0.19362836 0.0008770246 0.12104765 0.19954738 -0.07244765 -0.045518577 0.34476 0.4385924 0.5558561 0.5061587 0.045444123 0.097724676 0.5194999 0.088779725 0.07238683 -0.06399193 0.6008992 0.050624363 0.1070462 0.620572 0.5869883 0.14835864 0.16046737 0.17258069 0.23234698 0.23275082 0.29256767 0.42626184 0.49471682 0.56528586 0.60419595 0.5496224 0.59237456 0.61826897 0.61781657 0.6532843 0.61174524 0.3010965 0.46430206 0.5510197 0.59186685 0.55422425 0.5959326 0.1825873 0.23741537 0.5046475 0.52294135 0.45747605 0.30830124 0.27497014 0.29112613 -0.0071852813 0.23120876 -0.028997295 -0.08419146 0.13966496 -0.1675015 -0.17510027 0.047460966 0.07540301 0.113051556 0.29213408 0.4465939 0.028571602 0.42256987 0.45089662 0.14488944 0.41798156 0.46980906 0.4551632 0.39606065 0.25229478 0.53878164 0.5607346 0.60118186 0.5422019 0.599501 0.62599236 0.6224444 0.6221796 0.577294 0.5622968 0.6366426 0.49950027 0.41823483 0.3955659 0.6716584 0.65471625 0.49204153 0.1251198 0.6437392 0.6805665 0.58791804 -0.23662072 0.49290752 0.55901873 0.6001764 0.609305 0.11826007 -0.22011122 -0.24171941 0.56403 0.56689066 0.49474657 -0.09745315 -0.06969766 -0.05861296 0.2090883 0.109704524 0.2362615 0.22499451 0.23080127 0.23187909 0.22386302 0.11186548 0.20777181 0.19136387 0.26755023 0.19050473 0.29676518 0.2710406 0.33934373 0.37105757 0.30706954 0.57689154 0.3409185 0.65676385 0.6524055 0.32463142 0.6675955 0.66538465 0.2796046 0.25726944 0.35586008 0.6351911 0.65419555 0.23848219 0.48484358 0.42679608 0.6170593 0.64057827 0.63075185 0.44528544 0.14853716 0.45365557 0.6748213 0.63867307 0.54138124 0.4820432 0.03391219 -0.045554407 0.50242394 0.5066879 -0.020381384 0.18547255 0.04346187 0.56033635 0.54762805 0.113295384 0.0850214 0.08190373 0.3083948 0.33440083 0.5289482 0.5696692 0.32669225 0.42504463 0.4582883 0.60801995 0.6364697 0.6371577 0.36549866 0.45784137 0.5223175 0.62605745 0.626746 0.5988765 0.6337266 0.6111996 0.2697304 0.31899202 0.3626345 0.5624352 0.49079686 0.47255802 0.4198168 0.40361816 0.33929634 0.29359823 0.264476 0.26065272 -0.11017802 0.25558245 -0.10178876 -0.14893165 0.17169227 -0.18746933 -0.18497738 -0.02497381 0.12491657 0.09439601 0.101105146 0.33958182 0.42519122 0.10595939 0.052101046 0.5197009 0.18552965 0.118009046 0.5195103 0.37313473 0.28965092 0.5312843 0.6194527 0.5649272 0.5619957 0.61618114 0.53358483 0.5906936 0.5726534 0.59099746 0.6094758 0.5096297 0.49477428 0.6240289 0.62215924 0.3943221 0.624541 0.6363874 0.5336132 -0.21202633 0.5798923 0.5176034 -0.2038192 -0.15959235 0.48805547 0.29303366 -0.22730726 0.015565708 0.22598314 0.15242758 0.197524 0.19710813 0.13532017 0.16804904 0.16239998 0.1506797 0.22425228 0.19099054 0.2638818 0.26500732 0.48943055 0.5773829 0.6312841 0.39385328 0.62876296 0.6203427 0.36665085 0.42590272 0.4795112 0.62297326 0.30166495 -0.12106198 0.44093564 -0.11752951 0.2464014 0.52591217 0.58161724 0.39603913 0.18988504 0.111218005 -0.027918361 0.3900512 0.6535255 0.6793575 0.6735159 0.6066111 0.014822159 0.31952453 0.17151487 -0.2721948 0.38585702 0.38478208 0.38973126 0.36505064 0.32755476 -0.17313981 -0.1622583 0.018699057 0.41307303 0.4517101 0.44461268 0.3209565 0.3863054 0.56536484 0.6450136 0.6355137 0.595158 0.40008408 0.56011844 0.49075556 0.5135847 0.4321826 0.20606263 0.27973044 0.3083655 0.37807244 0.24075511 0.26074192 0.29236048 0.3518995 0.23767439 0.20744476 0.14937806 -0.15884992 0.23155145 0.12006497 -0.10966131 -0.13835564 -0.16098483 -0.025336519 0.11927671 -0.1821398 0.27221194 0.42619395 0.4658512 -0.016976386 0.49477136 0.52178013 0.11081855 0.075733155 0.47510308 0.47592247 0.34512836 0.21755645 0.41425112 0.53701895 0.40882808 0.5669701 0.4245048 0.5553782 0.41167873 0.48491418 0.45513922 0.5381899 0.49358916 0.57024634 0.43417865 0.5045015 0.44002706 0.31153908 -0.10979659 0.385074 0.29496312 -0.16679078 0.096057296 0.13283782 0.12527277 0.19236413 0.16284265 0.07696906 0.20310746 0.19423197 0.22235166 0.102037326 0.19642755 0.09691994 0.27364576 0.2604026 0.20132628 0.35742283 0.40224642 0.5022967 0.3844959 0.09954729 0.43647033 0.46086895 0.13040026 -0.038007736 -0.105221346 -0.05868192 0.503876 0.5403097 0.21250153 0.13016108 0.030774884 0.58993113 0.6074078 0.64579487 0.5683365 0.44370633 0.21342072 -0.036395967 0.3654318 -0.33130342 0.11783579 0.44020218 0.46460122 0.25062108 -0.061476294 0.17835991 0.3117176 0.6541972 0.6566298 0.5751161 0.5469228 0.3760521 0.3208523 0.38257453 0.45017022 0.7273505 0.6674905 0.43239582 0.46136147 0.5357224 0.4983041 0.56436706 0.33593488 0.3483248 0.44110602 0.56570625 0.5967335 0.5717871 0.3423197 0.49142456 0.31532124 0.33859104 0.11755153 0.20736596 0.10570443 0.3922962 0.19350418 0.4242825 0.4481516 0.14502451 0.42230767 0.11071301 0.09893301 0.0654837 0.3610629 0.18759018 0.18975925 -0.053149514 0.13716114 -0.101508245 -0.2972957 0.33470428 0.010673612 -0.19493899 -0.100696936 -0.17224655 0.38439977 0.24835627 0.36798692 0.36246178 0.2993195 0.2199952 0.23519562 0.32789087 0.50130975 0.45190257 0.23511633 0.5282061 0.2828153 0.32766104 0.50955224 0.32046783 0.34378096 0.088361666 0.23002934 0.12414395 0.27549464 0.16775396 0.061888013 0.057329636 0.09569776 -0.2106838 0.006106725 0.1428404 0.11586238 0.022398464 0.22252212 0.12687358 0.66793466 0.67738885 0.08519387 0.5160809 0.64199287 0.6757863 0.27328247 0.030195087 0.03882423 0.34649786 0.53311884 0.35801512 0.356372 -0.050157934 0.35803527 0.39846015 0.3868081 0.3910125 0.38811588 0.13805139 0.30349207 0.36969328 0.40116042 0.057262525 -0.1815932 0.017278433 0.50153124 0.4979765 0.3720476 0.19826931 0.037674487 -0.035062388 0.091252506 0.5458049 0.5113267 0.4746732 0.43429303 0.19248661 0.124102175 0.47418347 0.6094681 0.2339544 0.22838964 0.3100047 0.7502606 0.4041608 0.27402735 0.42667013 0.810273 0.8296419 0.81346416 0.6952842 0.38002613 0.45382792 0.49927732 0.54809445 0.5080718 0.47713545 0.5521376 0.61279494 0.6034367 0.3002437 0.2774957 0.27229622 0.36657333 0.47952706 0.3254634 0.29653087 0.4698339 0.27362958 0.047013626 0.32099298 0.2992556 0.45209426 0.5680712 0.1315605 0.5697235 0.11740018 0.07205339 0.6168783 -0.0023333896 -0.24194348 -0.099563584 -0.09644814 -0.04182161 0.39294904 0.2923111 0.13999942 0.0096422285 -0.24870582 -0.3599593 0.009037573 0.09136732 0.18559441 0.3150723 0.06179537 0.10823838 0.2380512 0.035505626 0.11177056 0.19114019 0.18104383 0.20675993 0.20976235 0.20034611 0.20394395 0.4627502 0.21973126 0.4828668 0.23410743 0.22543986 0.12701207 0.2500323 -0.03325662 -0.0730532 -0.25523937 0.21156672 0.16060251 0.182908 0.07149431 0.15539388 0.24946976 0.27185494 -0.039793506 -0.031398013 0.10942953 0.6199865 0.664242 0.20015994 0.050056156 0.09255212 0.5825023 0.63121605 0.68179053 0.70841897 0.19530876 0.06413199 0.69783866 0.71481895 0.17525156 0.41458845 0.6054367 0.67194426 0.30939746 0.2934935 0.27907434 0.3553458 0.52855664 0.6021122 0.15465626 0.3851716 0.5298219 0.36349958 -0.19405116 -0.07736486 0.3010593 0.28758407 -0.2515763 0.123576