# vtk DataFile Version 2.0
Really cool data
ASCII
DATASET POLYDATA
POINTS 6381 float
-70.564735 80.56608 54.576088
-70.67104 80.68528 55.39864
-70.70372 81.39574 54.793655
-70.60765 81.93047 55.181644
-70.58326 81.50009 56.446655
-70.76736 82.542076 54.91894
-70.83956 82.258286 55.45202
-70.69766 82.56812 56.50143
-70.765915 83.70503 55.076244
-70.865715 83.489456 55.469776
-70.84756 83.56738 56.26339
-70.65803 83.01956 56.883656
-70.695625 84.10116 55.5187
-70.60624 84.12127 56.439056
-70.51192 85.8914 62.459198
-70.56083 86.30451 62.613174
-70.53401 86.2264 63.00062
-69.828224 79.221664 54.753883
-69.69447 79.18285 55.13773
-70.05602 79.99168 54.01146
-70.07302 79.67072 54.53405
-70.156044 79.76199 55.380997
-69.86694 79.72305 56.165405
-69.776726 80.10941 56.82437
-70.26402 80.56026 53.954033
-70.44936 80.40296 54.355434
-70.439644 80.68679 55.57611
-70.329544 80.59639 56.34344
-69.77788 80.90372 58.695736
-70.04132 80.756714 59.659687
-70.180115 80.95883 60.286873
-69.84592 80.80695 61.108856
-69.65158 80.99951 62.089787
-69.98486 81.26063 53.627888
-70.522865 81.21009 54.272537
-70.06097 81.2258 57.036427
-70.44406 81.69494 59.54895
-70.35457 81.442924 60.411537
-69.60253 82.070145 62.28604
-69.511665 81.051796 63.217026
-70.11255 82.04024 53.9454
-70.39657 82.68099 57.52396
-70.22839 82.43405 58.82572
-70.44815 82.304146 59.504723
-70.36633 82.42986 60.447647
-70.16529 82.88505 61.327892
-69.7358 82.28705 62.164066
-70.46484 83.65609 54.711315
-70.122215 83.189644 57.820107
-70.193054 83.34442 58.7147
-70.14063 83.46958 59.84999
-70.14464 83.41319 60.42437
-69.90518 83.39506 62.207508
-69.72555 83.83738 63.186058
-70.29093 84.23109 54.887684
-70.381294 84.459076 55.411816
-70.49173 84.39537 56.36955
-70.21807 84.1694 57.392876
-69.79298 84.60715 59.665306
-69.64689 84.56075 60.371094
-70.02854 84.3219 61.84576
-70.23064 85.10784 63.20448
-69.81151 84.88534 63.94232
-69.98115 84.91504 55.174564
-70.0449 85.030945 55.61359
-69.85254 85.5232 56.608368
-69.83003 85.42603 57.11379
-69.70103 85.240204 60.381607
-70.28618 85.77015 61.939735
-70.3695 85.510185 62.536777
-70.37577 85.65392 63.33237
-69.88564 85.49148 64.340904
-69.72837 86.10765 65.001015
-69.68905 85.70625 56.83841
-70.14497 86.554634 61.932533
-70.40032 86.420334 62.58813
-70.3881 86.64808 63.644135
-70.212975 86.687096 64.301254
-69.81561 86.59948 65.106964
-69.78448 87.21752 61.913857
-70.26189 86.93341 62.456112
-70.16238 87.3833 63.629208
-70.09749 87.26027 64.401566
-69.84411 87.29981 65.05738
-69.87542 87.76828 62.883823
-69.834595 87.92969 63.13952
-69.82301 88.134544 64.205124
-68.927155 78.3813 54.74926
-68.8607 78.31661 55.115906
-68.96945 78.85488 53.91108
-69.15512 78.63099 54.459717
-69.28591 78.70154 55.1664
-68.7145 79.07159 63.332703
-68.76025 79.10094 63.958675
-69.081154 79.81781 53.340824
-69.19224 79.56343 53.577267
-69.22908 79.463295 56.44153
-69.29453 80.27854 57.62744
-69.30757 80.23824 58.387363
-68.79354 79.64728 59.90047
-69.320076 79.99778 60.579517
-69.16319 79.999176 61.256203
-69.16836 79.9942 62.846622
-69.11205 79.78092 63.480732
-68.9229 79.77477 64.28701
-68.675545 79.81714 64.7157
-69.441376 80.8192 53.312523
-69.59841 80.342766 53.52375
-69.35456 80.61972 63.43378
-69.093575 80.63585 64.333954
-68.69586 80.54074 64.95753
-68.87961 81.32843 53.227688
-69.42683 81.8811 53.52253
-68.9996 81.15152 64.315346
-69.21018 82.49743 53.29597
-69.35934 82.49495 62.83649
-68.868866 81.8423 63.87868
-69.4435 83.34626 53.923954
-69.42745 83.39433 63.401127
-69.176094 84.1122 64.549706
-69.258575 84.03584 53.975166
-69.277374 85.09944 64.86352
-69.34378 85.097435 54.712822
-69.60242 85.547615 55.80259
-69.50428 85.41785 59.016632
-69.36884 85.18776 64.57237
-69.425415 85.44411 64.86258
-69.05089 85.73689 55.072235
-69.04702 86.080635 55.809887
-69.30897 86.04343 56.626316
-69.14721 85.79882 57.838425
-68.797005 86.57943 60.38498
-69.538216 86.49586 65.39508
-69.39135 86.76845 65.63657
-68.93588 87.14868 61.1729
-69.33131 87.38842 61.648045
-69.4902 87.0589 65.51694
-69.02088 87.318886 65.71367
-69.25435 87.82398 62.08595
-69.238205 88.13842 62.570362
-69.527084 88.50974 63.709385
-69.44685 88.45903 64.46527
-69.22459 88.00352 65.19235
-69.067535 88.863365 63.59376
-69.036964 88.77981 64.35366
-68.40153 78.36516 54.077694
-68.45596 78.24268 54.49879
-68.23282 78.2491 55.338615
-67.62733 78.26592 60.927505
-68.14986 79.19876 53.235924
-68.475876 78.69644 53.799877
-68.622444 78.45807 55.59702
-68.182335 78.75636 56.039852
-68.0058 79.04592 60.423183
-68.26216 78.9538 61.51221
-68.13807 78.81611 62.891243
-68.16934 78.693596 63.633575
-68.154564 78.85798 64.18188
-67.99051 79.14677 64.72863
-68.4285 79.54371 53.164066
-68.698906 79.25593 53.472862
-68.711136 79.76072 59.867268
-68.4994 79.28886 64.43374
-68.44905 79.78525 64.85559
-68.75999 80.465836 53.120235
-68.33256 80.33124 65.20662
-68.41047 81.57291 53.078545
-68.30478 81.400314 65.04693
-68.639366 82.836235 53.174805
-68.4001 81.94752 64.58165
-68.23106 82.48386 64.76568
-68.732025 83.41869 53.389442
-68.379555 83.84494 65.01045
-68.215996 83.95356 53.484604
-68.32355 84.59079 65.28351
-68.556755 85.16188 54.280704
-68.33084 85.59075 54.572105
-68.35762 85.74867 65.82041
-68.04176 85.800186 54.638897
-68.576225 86.391975 55.865612
-68.639694 86.49553 60.129402
-67.94622 86.78658 56.454998
-67.746475 87.162506 58.88842
-68.350395 87.2003 60.654522
-68.84255 87.534294 65.785934
-68.11827 87.877914 61.54871
-68.24375 88.45788 62.3675
-68.64269 88.23099 65.22939
-68.695366 87.81878 65.65433
-68.45944 89.03604 63.643677
-68.53889 88.91833 64.33047
-68.588036 88.708954 64.75963
-67.77021 91.05601 55.80996
-67.728874 91.70619 55.60823
-67.92904 91.45417 56.63943
-68.00597 91.4877 57.278503
-67.82817 91.31993 58.42908
-67.59723 91.447525 59.11243
-67.69655 92.534386 55.684593
-68.017075 92.18795 56.495773
-67.943726 92.29825 57.391125
-67.72425 93.2477 56.5064
-67.73941 93.05966 57.13988
-67.65212 93.71389 60.373737
-67.81016 93.69291 61.47648
-67.72739 93.77273 62.1991
-67.78237 94.48051 60.71508
-67.994995 94.384254 61.33478
-67.920555 94.54257 62.385258
-67.66678 95.031525 60.878674
-67.74463 95.64495 61.65961
-67.84891 95.52847 62.342865
-67.736595 95.37733 63.0495
-67.67363 95.895874 61.957096
-67.67228 95.9678 62.414993
-67.64083 95.82185 62.913395
-66.65442 76.31284 57.992462
-66.69638 76.32114 58.997604
-66.8574 76.68844 57.55848
-66.87413 76.61295 58.477528
-66.91877 76.74729 59.657673
-66.8871 76.87 60.27561
-67.837074 78.390236 54.058655
-67.60043 78.3031 54.478794
-66.718605 77.22661 56.920063
-67.00276 77.24099 57.738388
-67.24182 78.03576 58.803368
-67.1889 77.39764 59.564754
-67.18763 77.59869 60.33832
-67.08394 77.94322 61.208614
-67.02065 78.245926 62.44182
-67.63059 78.386284 63.478878
-66.61374 78.08694 69.79069
-67.95889 79.104645 53.20742
-67.70612 78.83549 53.585033
-67.26873 78.49109 56.76568
-67.08434 78.55299 57.585712
-67.21395 78.353264 58.152653
-67.47897 78.37576 59.099583
-67.5309 78.504684 63.538857
-67.62954 78.7596 64.44592
-67.09163 79.0863 65.051796
-66.65669 78.53965 69.09084
-66.80108 78.67395 69.53856
-66.65011 78.49692 70.25634
-67.74799 79.57512 53.015438
-67.41951 79.32723 58.11321
-67.55739 79.6867 65.20618
-66.71907 79.527054 68.81883
-66.92092 79.48469 69.60337
-66.8126 79.483475 70.13015
-67.77844 80.49035 52.899807
-67.78635 80.92607 65.57488
-66.62292 80.17509 68.810265
-66.85475 80.01361 69.710266
-66.73365 80.06714 70.01684
-67.38798 81.35066 52.816364
-67.302444 81.11157 65.577545
-66.99401 83.414856 52.592136
-67.1229 83.995926 65.5935
-66.64831 83.98037 68.43206
-66.859276 84.1558 69.71008
-66.62534 83.84173 70.191345
-66.91115 84.63052 68.76381
-66.933105 84.54903 69.50115
-66.766785 84.62689 70.32102
-67.67183 84.84181 54.091152
-67.61552 85.75242 65.982925
-66.952805 85.2355 69.66333
-66.717125 85.5281 70.34202
-67.36361 86.174065 55.000443
-67.18668 86.40903 66.56267
-66.710205 86.035736 69.665436
-66.678474 85.881195 70.08476
-67.43953 86.96297 55.93465
-67.31834 87.5912 66.264885
-66.87966 88.58944 56.307228
-67.00646 88.986206 56.714443
-67.221436 88.06677 58.590733
-67.75648 88.127266 61.760464
-67.472885 88.378624 62.461193
-67.5936 88.45965 65.3857
-67.2384 88.07782 65.82516
-67.27475 89.810486 56.72876
-67.363846 89.93744 57.18451
-66.607254 89.43795 59.780075
-67.20484 88.72352 63.50053
-66.98369 91.03462 55.184135
-67.39274 91.03942 55.41386
-67.49213 90.56632 58.714878
-67.25133 90.760284 59.16936
-67.25686 91.71163 55.09889
-67.58699 91.310844 55.505527
-67.067184 91.19654 59.561317
-66.87241 91.94031 59.90915
-67.31507 92.37707 55.224113
-67.490364 92.65666 55.514248
-67.18623 93.04193 60.443687
-67.06345 92.98854 62.113873
-66.77212 93.27182 63.10261
-66.947685 92.9722 55.27949
-67.181625 93.240326 55.628727
-67.54199 93.41801 56.468483
-67.243706 93.21067 58.37926
-67.543236 93.52263 62.306248
-67.21622 93.76362 63.21971
-66.85597 93.83935 63.776207
-67.04289 93.67275 55.954792
-66.91719 94.07463 56.87087
-66.94354 94.56585 59.74377
-67.424866 94.45862 63.695583
-67.20432 94.69716 63.922993
-66.67437 94.91309 58.9662
-67.53059 95.315575 63.414986
-67.1862 95.18567 63.892715
-67.48487 96.13051 61.820263
-67.380356 96.31297 62.502804
-67.26397 96.154106 63.103687
-67.038216 96.64163 61.976093
-66.94365 96.64697 62.29719
-65.58037 69.99265 36.939236
-65.6132 70.004395 37.129368
-65.60763 70.43405 36.7437
-65.657074 70.4734 37.284554
-65.57047 70.62648 37.917133
-65.59685 71.16574 36.870224
-65.69465 71.241455 37.604294
-65.59399 71.6542 38.431995
-66.055214 76.14244 57.03585
-66.21918 76.037964 57.555904
-66.2573 75.94254 58.452435
-66.26053 76.10955 59.563446
-66.28517 76.26625 60.11549
-66.3223 76.548004 56.847183
-66.61625 76.46282 57.30853
-66.57135 76.45616 59.89365
-66.457184 76.49142 60.388935
-66.13032 76.87729 61.185375
-65.85291 77.44056 69.66618
-65.900734 77.437584 69.978806
-66.156555 77.857285 62.396305
-66.05673 78.198875 63.729218
-65.88019 78.15325 68.20023
-66.09162 77.915794 68.79586
[...]
POINT_DATA 6381
SCALARS features_00 float 1
LOOKUP_TABLE default
0.60459316 0.55053294 0.5611361 0.5144992 0.41431332 0.5105231 0.4797246 0.3839097 0.47991526 0.46545205 0.42260072 0.33809644 0.45663774 0.41639203 0.4395723 0.49462157 0.506964 0.6360012 0.5992358 0.6275863 0.64029837 0.5733498 0.45870018 0.31691715 0.60309696 0.616191 0.5348215 0.43400022 0.21515676 0.2995398 0.33647925 0.3128108 0.24635068 0.5454384 0.5819139 0.29289103 0.3090454 0.33723378 0.16624722 0.3188228 0.52905846 0.2261146 0.18534893 0.24071312 0.2819153 0.22107008 0.16253032 0.4904346 0.19345665 0.1269873 0.16885673 0.20646468 0.15202749 0.20564273 0.46545595 0.45263997 0.42056513 0.30449596 0.09787632 0.13308746 0.1985485 0.39207682 0.358743 0.4446047 0.43532908 0.38808534 0.34566274 0.14751592 0.373343 0.3992234 0.4635325 0.44622374 0.49436802 0.36413005 0.44660267 0.5041825 0.5713975 0.5866031 0.5577613 0.46809703 0.5262867 0.6383393 0.655347 0.6395744 0.5949391 0.63008 0.70693994 0.6271287 0.5953995 0.62504894 0.64017284 0.59163415 0.48387653 0.5309258 0.562397 0.597378 0.3730347 0.09662626 0.04578135 0.10330909 0.23225206 0.24526936 0.42348355 0.51600605 0.5493734 0.5469653 0.5228504 0.5724094 0.42037895 0.49226964 0.50557035 0.4370749 0.46437848 0.4294771 0.3924037 0.123169936 0.28915045 0.427566 0.124354124 0.20060852 0.40087038 0.33677107 0.4237821 0.41273603 0.086191654 0.36139983 0.3916467 0.39327306 0.37841785 0.3569916 0.21369669 0.16913068 0.5195823 0.53950775 0.33721322 0.41476956 0.5914686 0.5752076 0.46587986 0.5381918 0.6892351 0.68973583 0.647349 0.6543199 0.6657982 0.6199372 0.6269498 0.55183995 0.11897184 0.54320574 0.6058396 0.51220274 0.34689814 0.051304188 0.13503015 0.36571681 0.4467671 0.4912653 0.51221967 0.5292042 0.57923585 0.10375025 0.5389446 0.54134667 0.48366264 0.51020384 0.36261535 0.40231836 0.29761422 0.3164157 0.16875695 0.29296267 0.08437324 0.2306482 0.20838708 0.3350016 0.3124044 0.33767393 0.2775002 0.34684625 0.08532862 0.2620033 -0.2462015 0.22756296 0.5721297 0.3511762 0.43330842 0.5988659 0.5786692 0.597595 0.6100526 0.60771877 0.56306005 0.6406174 0.5770611 0.5658304 0.31496358 0.080363564 0.637455 0.61831176 0.55256915 0.53112626 0.48719728 0.46563613 0.5402613 0.5916256 0.52480257 0.6012234 0.6675575 0.51289976 0.54905534 0.6058253 0.6536783 0.5529842 0.5839896 0.6167027 0.50830066 0.459857 0.45895585 0.44304666 0.3772041 0.33736587 0.59185123 0.58552474 0.40208927 0.3615141 0.24536508 0.306099 0.25265744 0.19095458 0.18096587 0.34346703 0.7169275 0.53851813 0.55306005 -0.011388183 0.1285814 0.19097377 0.15585116 0.34441715 0.4473388 0.44267857 0.7239424 0.74344933 0.73959565 0.47773004 0.0068850704 0.50736964 0.6758609 0.68923473 0.6872083 0.38281095 0.43303633 0.5674218 0.60358113 0.5955744 0.25668827 0.38018975 0.18544216 0.0006121807 0.43945158 0.58224386 0.5792167 0.5447744 0.59030116 0.6185339 0.2249773 0.30637455 0.60202205 0.61061305 0.20633343 0.34329668 0.5559193 0.5878342 0.16018389 0.40305555 0.01580903 0.15977728 0.028982826 0.3302545 0.3249196 0.47547945 0.38898468 0.36205766 0.4036525 -0.1522102 0.38782135 0.5902551 0.5852035 0.15145695 -0.02307947 0.65036213 0.6135444 -0.07735652 -0.020454109 0.6527158 0.6380333 0.31182182 0.4127733 0.48734155 0.62125206 0.593172 0.5083244 0.27065358 0.5420629 0.5804752 0.56168276 0.5324278 0.36516696 0.24191245 0.6600064 0.65578616 0.096502006 0.6759453 0.6703532 0.5158614 0.56563604 0.6013093 0.4950732 0.51954865 0.7896341 0.7878212 0.7622118 0.76498246 0.76204574 0.71201277 0.7341546 0.718782 0.5816413 0.5672445 0.5422976 0.47110543 0.416502 0.5425342 0.5177517 0.4072129 0.37223107 0.28190127 0.646933 0.6527987 0.08677276 0.09163332 0.5562614 0.6375309 0.68053293 0.685526 0.6777462 0.49760088 0.4367876 0.24247298 0.2809888 0.6986219 0.725043 0.7039917 0.40538955 0.4096485 0.54225147 0.67009604 0.6603052 0.21347278 0.407161 0.5707027 0.5555414 0.29114133 0.37498754 0.4827168 0.38884175 0.29575035 0.034501947 0.21757819 0.06348986 0.5295767 0.55424845 0.09763277 0.60013384 0.14315033 0.4606838 0.6123049 0.5830848 0.1105505 0.50719225 0.55135846 0.55598843 0.004605204 0.0075941533 0.20014228 0.2768533 -0.037432894 0.10347141 0.24126387 0.34570706 0.27926835 0.09555104 0.3339074 -0.3401797 -0.45866826 -0.016884148 0.23022588 0.571714 -0.17771499 0.62600803 -0.09969749 0.043339152 0.62940115 0.21755512 0.44564366 0.5771029 0.5582367 0.52474755 0.38713792 0.1407975 0.5745445 0.109479465 0.093209445 0.5879341 0.22672167 0.18629614 0.253547 0.5790546 0.59126616 0.5346806 0.496337 0.36758322 0.23195885 0.3092747 0.44860548 0.5126473 0.5444559 0.60313 0.81820595 0.809541 0.80445147 0.80568385 0.80072653 0.7718737 0.77066094 0.76778495 0.7529035 0.73412097 0.6808732 0.6999272 0.6668629 0.71715146 0.6756885 0.63455355 0.57062334 0.5748144 0.6455195 0.6670282 0.6597545 0.508313 0.52353 0.5814345 0.5708036 0.5551475 0.5929401 0.5791609 0.56716466 0.5300879 0.47498748 0.57147634 0.33697876 0.123818204 0.52956295 0.6088395 0.62258583 0.35845914 0.07295225 -0.023129996 0.03167627 0.57681084 0.6348134 0.62049603 -0.019386724 0.061395623 0.31033015 0.6652646 0.6058041 0.20338508 0.14443563 0.6530601 0.23734364 0.51872945 0.3104563 0.2776039 0.4112621 0.31902057 0.4075237 0.20974323 0.38221157 0.05148387 0.5447321 0.44517168 0.5080008 0.45352 0.11705384 0.5080964 0.50643754 -0.0063560754 0.16633089 0.39433166 0.45503634 0.42782477 -0.013534039 0.12002852 -0.5069136 0.17807947 0.41856268 -0.44346982 0.4783339 -0.2377863 0.49415034 0.4980663 0.43042928 0.4851537 0.36325398 0.5184581 0.47813877 0.48952705 0.57628435 0.5070901 0.46072322 0.6900486 0.61974126 0.39575157 0.3330294 0.425623 0.4298069 0.70107186 0.6802484 0.6314967 0.5297619 0.50581414 0.4010464 0.64304626 0.8158783 0.8165987 0.80305624 0.77834034 0.7214161 0.82973325 0.7825246 0.7909244 0.81080043 0.7534906 0.69568145 0.7947594 0.84769607 0.86866814 0.8243799 0.7455205 0.6283121 0.60374796 0.87064755 0.8640262 0.8469286 0.6570299 0.6353493 0.6107459 0.57398856 0.49994248 0.5873896 0.43534485 0.39689243 0.3977301 0.42452055 0.2917445 0.3387748 0.3340664 0.33449736 0.566756 0.5340172 0.27272347 0.28661004 0.3019183 0.5726155 0.5741068 0.51762205 0.38219237 0.5625677 -0.0133110285 0.5288327 0.536257 0.5428817 -0.041528422 0.3217736 0.41150945 0.5883965 0.5485417 0.07883491 -0.0075863153 -0.1218933 -0.045406073 0.15160039 0.19708678 0.39770746 0.29447967 0.3262814 0.07667098 0.18335873 0.15360542 0.009695638 0.34737557 0.035344813 0.39492333 0.32417902 0.27022925 0.34389457 0.23918055 0.38843757 0.39927968 0.36421144 0.37794462 0.28117716 0.10224346 0.43391007 0.44262636 0.3910549 -0.20518324 -0.11505165 -0.021590132 0.031965792 0.27532274 -0.3036316 0.21488464 -0.062319413 0.3056109 0.052248944 0.3787791 0.21926543 0.3715241 0.27011746 0.5556482 0.5110173 0.12693821 0.35390672 0.31629178 0.40085083 0.34559786 0.5964684 0.39932472 0.68117857 0.34748346 0.36143878 0.34041926 0.716441 0.72693604 0.46327963 0.34108227 0.7356001 0.7465087 0.692786 0.58142483 0.54269975 0.56566787 0.54720676 0.52145195 0.38879597 0.5113286 0.5499512 0.53943527 0.50905764 0.36016142 0.42063183 0.4767029 0.6581468 0.6445641 0.6130232 0.5585221 0.37011892 0.37322766 0.40801877 0.65688366 0.6511755 0.7995974 0.7811205 0.76377547 0.6425427 0.67976475 0.7670796 0.7789787 0.7969011 0.6659337 0.7313708 0.8030218 0.724336 0.7411254 0.538098 0.5476428 0.7928139 0.85704386 0.83380675 0.80595887 0.6887009 0.63876414 0.4878614 0.8232583 0.8210076 0.5085407 0.68679583 0.67860496 0.4634829 0.38329262 0.32641572 0.66538304 0.31275988 0.3066476 0.3047123 0.5216259 0.25060555 0.24982649 0.28543156 0.25538918 0.53424686 0.49014205 0.45217234 0.43790072 0.23031327 0.52447164 0.28400794 0.0032872558 0.02230477 0.47030544 0.48997203 0.4868803 -0.05169915 -0.16324572 -0.03788757 0.08203459 0.45615643 0.45197183 0.16461447 0.13494775 0.06006068 -0.06160247 0.4205345 0.24479161 0.15743965 0.14034033 0.23314351 0.2166803 0.14481851 0.34282917 0.2948039 -0.008747809 0.36430922 0.4009924 0.38709337 0.26424652 0.11215605 0.3802812 0.4932987 0.49340189 0.49012214 0.43123338 0.15522356 0.30679896 0.5510085 0.552289 0.54282904 0.4414066 0.27465272 0.5634164 0.56097543 0.526561 0.39039427 0.2635067 0.24784751 0.23542617 0.18311302 0.45321095 0.4094528 0.35428107 0.41079846 0.40579656 0.39729232 -0.07854697 0.022872165 0.07938421 0.13379504 -0.31175423 0.11219904 0.025044648 0.124199 0.1682731 0.27323377 0.2934242 0.3729432 0.46532047 0.5728476 0.07667674 0.629917 0.64235103 0.11763492 0.65524393 0.6460216 0.3266727 0.5249126 0.64400554 0.646536 0.57297117 0.29564312 0.2509838 0.6579108 0.34549072 0.31522375 0.69345576 0.38511443 0.68715394 0.697901 0.6706704 0.63027674 0.55595845 0.34542507 0.52220273 0.5204011 0.47293 0.26322746 0.29650527 0.4881513 0.30155602 0.64348507 0.619251 0.22410512 0.41733825 0.65403616 0.34242517 0.3070867 0.36307773 0.63876486 0.31508702 0.2792237 0.62133706 0.76783127 0.77447206 0.74367845 0.7206079 0.62541044 0.6739325 0.7031431 0.7332686 0.6530673 0.6363534 0.7457421 0.6981536 0.74207246 0.6919528 0.39155024 0.6785857 0.68966866 0.6686487 0.645288 0.75605327 0.7493657 0.7249559 0.5263239 0.13479513 0.6929465 0.6945709 0.6755325 0.6741998 0.66922385 0.34515828 0.24763283 0.65952325 0.64097345 0.65330786 0.6543695 0.6479154 0.20957252 0.5771129 0.5494433 0.5644287 0.5791313 0.32710457 0.20587322 0.22049205 0.14736167 0.40259856 0.3578071 0.09139333 0.52121925 0.3719558 0.2806897 0.21013615 0.124825925 0.16892938 0.043653768 0.07136457 0.06041858 0.03840624 0.3927743 0.43154925 0.4456486 0.51156265 0.44265038 0.36503816 0.29695943 0.20829226 0.11449267 -0.023331992 -0.13990286 -0.026293289 0.0148931965 0.3125218 0.380983 0.40705216 0.22802232 0.21750702 0.17253333 0.118458614 -0.13367918 0.06313237 0.17515077 0.16836917 0.21916091 0.23985675 0.1313915 0.15618275 0.20785718 0.19642615 0.004387442 0.23174089 0.14248756 0.23590669 0.32436967 0.30991358 0.29529047 0.053248387 0.40094185 0.32234213 0.37252983 0.4041406 0.47990298 0.31908193 0.3626732 0.5237166 0.53511846 0.5589753 0.56153476 0.5443649 0.507657 0.45393637 0.3672589 0.120837525 0.2444193 0.31511313 -0.10972185 -0.10503104 -0.13454437 0.34358084 0.29389903 -0.08203238 0.40639746 -0.014532022 0.13804397 0.0209575 0.5154064 0.42310727 0.28654104 0.06786631 0.5618801 0.1284288 0.6381788 0.6075871 0.27122036 0.101572275 0.1549327 0.32000715 0.5996796 0.6317252 0.6188462 0.53334796 0.28602466 0.6096194 0.59751654 0.36040956 0.33323658 0.63574517 0.62763476 0.6069734 0.5117938 0.3949936 0.3888356 0.6534839 0.6266987 0.62797827 0.60935247 0.54731196 0.22937748 0.40449554 0.43650413 0.51864296 0.5327991 0.2173448 0.49336502 0.5623928 0.59412825 0.4984717 0.6627098 0.55899876 0.5223687 0.6346566 0.7040945 0.7568604 0.5834918 0.25553107 0.51267874 0.6019645 0.6729785 0.7447666 0.6021511 0.26946938 0.35431248 0.36342442 0.56430525 0.70959586 0.31279257 0.34876874 0.3490743 0.33694327 0.57757026 0.6012869 0.6885568 0.27700722 0.5815233 0.6164544 0.58991635 0.5422215 0.5953865 0.6066782 0.6170194 0.5578617 0.6430415 0.60223943 0.5662164 0.6305931 0.61774147 0.56976587 0.6234236 0.41103825 -0.07345794 -0.0031240433 0.5844945 0.65568364 0.6090301 0.20694001 0.65312546 0.6943838 0.043661654 0.11966026 0.4122524 0.6026572 0.58355623 0.2264727 0.22386774 0.21590348 0.1979801 0.16736025 0.6821937 0.7055083 0.32282227 0.11327069 0.110572286 0.35840955 0.44549394 0.5096407 0.50453347 0.21071157 0.22068705 0.22550091 0.20581913 0.118442036 0.12487125 0.12188183 0.12108368 0.698601 0.70278275 0.5298085 0.47760293 0.12792805 0.104814574 0.06867875 0.35880238 0.4281276 0.446865 0.1094314 0.23564136 0.22571082 0.041233934 0.108946115 0.11744698 0.111252576 0.5876647 0.54244536 0.10779593 0.17401184 0.1804443 0.022593126 0.1070367 0.0071981796 0.011745128 0.0013831034 0.093995646 0.31100908 0.6143099 0.60708994 0.55411446 0.5127656 0.259849 0.1726793 0.13701633 0.27769685 0.26273316 0.20864487 -0.1702216 -0.17893624 -0.12014607 0.27737042 0.14244801 0.6082506 0.5600582 0.49627733 0.44735742 0.3580985 0.17814067 0.22079101 0.26208162 0.26903838 -0.01613611 0.05539529 0.10628027 0.17571676 0.1997914 0.012518175 0.04477697 0.08614481 0.11664595 0.11698969 0.13090107 0.27055636 0.16430166 0.2163384 0.35101885 0.26749086 0.28078967 0.39812744 0.42399287 0.3613019 0.51771295 0.53421086 0.5422143 0.51810926 0.43751913 0.34295082 0.0682699 0.047817923 0.023310099 0.13861671 0.61966884 0.5964141 0.67691225 0.13282336 0.47519484 0.5954952 0.6503635 0.1096138 0.38233483 0.5349858 0.59206563 0.20094907 0.5359416 0.5103813 0.07792169 0.57876945 0.26041347 0.2078191 0.10253039 0.25231403 0.48082447 0.56406236 0.5814798 0.5925536 0.4318737 0.3749554 0.4218312 0.29763576 0.5644407 0.50539136 0.49685615 0.44945604 0.42857295 0.40393257 0.56218565 0.55497515 0.5278962 0.46042317 0.43157747 0.59997857 0.5963669 0.57537824 0.67941785 0.63681495 0.5799347 0.7149023 0.6287074 0.6097232 0.5138688 0.24738775 0.53256696 0.5384619 0.56775486 0.5903789 0.51545715 0.7542989 0.4703638 0.7843125 0.4941391 0.72825384 0.75949335 0.2779734 0.3204656 0.31883413 0.52853227 0.21962568 0.569665 0.73644894 0.30077776 0.33996367 0.34607947 0.49899048 0.09555973 0.21315698 0.34018445 0.71245974 0.7316655 0.7085694 0.51419824 0.5188824 0.4136557 0.5261533 -0.050448768 0.2806418 0.41982377 0.5163939 0.45818737 0.44695508 0.33678886 0.6948055 0.681098 0.6391953 0.56338185 0.5168299 0.42293015 0.45219007 0.55114865 -0.01192956 -0.08937681 0.3379157 0.36661613 0.5751529 0.5148127 0.4748338 0.21057326 0.5256933 0.51341736 0.46679688 0.58234555 0.5955962 0.61485565 0.0057450756 -0.050697736 0.28045195 0.218144 0.21526007 0.23193333 0.16786912 0.118236035 0.12754819 0.15940866 0.62099206 0.60177845 0.6880835 0.27916753 -0.015251383 0.2149787 0.22050685 0.16511835 0.1379905 0.11470154 0.15602618 0.1472181 0.14350845 0.12893865 0.68124753 0.7104735 0.7101896 0.41236395 -0.026391242 0.09131606 -0.020503864 -0.03063381 0.1276787 0.15325123 0.07942295 0.124417976 0.13151455 0.12697136 0.1266602 0.119690664 0.6996751 0.7018764 0.71353173 0.71175367 0.5186565 0.01680572 -0.103735656 0.099297 0.23436531 0.37658393 0.016858295 0.1665698 0.19948657 0.7151977 0.72041595 0.7190692 0.6056719 0.03881122 -0.20650212 0.1276947 0.18706718 0.17970651 0.63990057 0.6351009 0.14530787 0.08548373 0.32133782 0.31652078 0.28363043 0.16713755 0.052545287 0.04106809 0.6506781 0.6339885 0.5737237 0.5164244 0.44503248 0.3551556 0.21083924 0.087266535 0.1270195 0.07380209 -0.025514826 -0.10247618 0.104617946 0.16798738 0.023747139 0.03356489 0.55877614 0.5124673 0.4484669 0.15719038 0.039807923 0.010445781 0.056809522 0.043711077 0.08115944 0.18397889 0.16882783 0.12846923 0.12661229 0.23889185 0.14514297 0.10247577 0.2519065 0.09571016 0.32706085 0.22901998 0.16716485 -0.12032422 0.44897634 0.14353938 0.28143382 0.20782743 0.16994941 0.21556972 0.16099039 0.07930344 -0.04961856 -0.09867798 0.7035397 -0.048310585 0.040868394 0.72471774 0.10440619 0.10701327 0.16006117 0.6645295 0.7018596 0.2051428 0.515313 0.6456687 0.21161272 0.4780783 0.10368221 0.05925913 -0.020416573 -0.025943905 -0.08847063 0.07950383 0.49085796 0.52657306 0.09172167 0.31379035 0.3088883 0.29443896 0.27525526 0.4940606 0.53766596 0.55326784 0.31722027 0.36729336 0.39620322 0.40777653 0.4317509 0.44745904 0.46831474 0.47177407 0.45688745 0.81541204 0.7142949 0.6488986 0.5828837 0.83699435 0.8087717 0.71326494 0.6433054 0.5867099 0.46469212 0.825657 0.7619746 0.39757597 0.055419505 0.7738562 0.7382302 0.16880694 0.45760906 0.5650203 0.5025561 0.5072408 0.53188074 0.6308921 0.43552154 0.71826696 0.71638787 0.15145388 0.18385522 0.4488913 0.67049044 0.36384004 0.18982555 0.18256344 0.27601823 0.28610742 0.27999306 0.28221434 0.45354384 0.6452248 0.39340743 0.093803376 0.144864 0.3487181 0.7274194 0.7287102 0.71161157 0.11894143 0.69855034 0.73759335 0.70374984 0.63365984 0.41860598 0.34313497 -0.100999914 -0.12905777 0.25817004 -0.029141102 0.5772437 0.6509812 0.5128794 0.4783046 0.4633569 0.36312363 0.13943866 -0.09752361 0.44229254 0.14879894 0.11661866 0.15038387 0.17778647 0.55849886 0.15006694 0.17692474 0.17858852 0.21646133 0.15098716 0.12182736 0.10192562 0.73221254 0.38051066 0.31367218 -0.02643819 0.122744545 0.08470582 0.6970483 0.7004601 0.7379077 0.4965751 -0.2403749 -0.0021530243 -0.050370134 0.080551475 0.018138856 0.03601964 0.15686806 0.69512546 0.7191053 0.7303394 0.7408203 0.6353922 -0.3153066 -0.30408484 -0.14004424 -0.008043334 0.7263926 0.72692794 0.659873 -0.036218293 -0.16506708 -0.19884133 -0.11193607 0.28873688 0.26425064 0.19269434 0.13856643 0.6528786 0.62695086 0.58753526 0.18342401 0.09316449 0.041113183 -0.099235125 0.20383489 0.07181239 0.54356575 0.513276 0.47862342 0.4256478 0.04540503 0.019893736 0.116473615 0.10610619 0.18796185 0.30533686 0.16318223 0.16464186 0.32295483 0.17731045 0.19145158 0.25324312 0.21001293 0.21200077 0.1955532 0.21087605 0.35679245 -0.11788623 0.19373646 0.21565382 0.27151653 0.029703617 0.25464436 0.24113518 0.22046587 0.17601827 0.55487263 0.11710861 -0.018575367 0.70276415 0.12596609 0.7034733 0.7124139 0.14983484 0.21197152 0.610495 0.6896893 0.19860727 0.109388575 0.074518636 0.15336189 -0.28909257 -0.009841245 0.05226819 0.119034454 0.07153222 0.14402841 0.21459702 0.37596872 0.41874862 0.27540144 0.3570658 0.8205265 0.7656027 0.6206256 0.5522456 0.8425714 0.83806664 0.39893234 0.25301078 0.8369992 0.7985549 0.2880592 0.3793772 0.6449601 0.39921296 0.38289702 0.4783519 0.6162065 0.6431563 0.6342901 0.34209943 0.4841835 0.15031895 0.5290019 0.62536085 0.6286575 0.5456457 0.37808502 0.33942485 0.2863168 0.1129787 0.081534564 0.12466645 0.56455255 0.5645241 0.5933885 0.45848748 0.41409183 0.17782095 0.0830636 0.38175747 0.36032563 0.23842858 0.5840585 0.48510697 0.4435934 0.29569712 0.30575454 0.64386344 0.6332318 0.38816997 0.37413612 -0.02470084 0.46358666 0.37956637 0.044282675 0.0155096855 0.12917483 0.25504062 0.565168 0.6144597 0.6104163 -0.16971973 -0.27107757 -0.2660851 -0.1757408 -0.106977955 -0.11390372 -0.17793736 0.5479945 0.4425456 0.040242083 0.42158717 0.37095523 0.42163384 0.20324774 0.049492847 0.022170333 0.13964036 0.20447558 0.22032861 0.20467004 0.15199901 0.06376937 0.6275603 0.4784804 0.24579762 0.10635169 0.009990845 0.5173164 0.40143016 0.012795856 0.008653816 0.032393064 0.68229926 0.7383759 0.5157848 0.51901555 -0.025797449 0.10567014 0.7011383 0.7115829 0.74186236 0.60343695 0.17424396 0.17605692 0.7249973 0.72340614 0.6470928 0.61621714 -0.27601486 0.14343588 0.6442061 0.60946584 0.5672518 0.50026864 0.33257586 0.08946855 0.15250939 0.24494123 0.4931783 0.44700742 0.004093051 0.30704293 0.3172331 0.13254294 0.35926723 0.17565435 0.16820626 0.41426045 0.2109197 0.21326695 0.36776632 0.4321248 0.23095487 0.21740983 0.35561252 0.45375043 0.19426513 0.1301828 0.14007813 0.0069237053 0.45681533 0.27447775 0.4392839 0.14785612 0.18314263 0.20093185 0.21385561 0.28490296 0.35971975 0.37081718 0.29676256 0.17054191 0.15060332 0.012761302 -0.559384 0.339549 0.54608417 0.6389586 0.40756226 0.43686247 0.3773719 0.34405217 0.17616048 0.10043733 -0.31272796 -0.5101525 0.4597517 0.6341377 0.15896253 0.06644997 0.234908 0.0033094436 -0.070667185 0.20944865 0.15963781 0.092199184 0.221968 0.12541117 0.27943158 0.2823542 0.26892292 0.29502392 0.3053729 0.7538345 0.6942972 0.53526205 0.40888593 0.2626289 0.8070979 0.7693844 0.7569568 0.37291908 0.64272976 0.72424227 0.7851182 0.6982025 0.2755285 0.350546 0.32927233 0.56288713 0.67006266 0.7288966 0.3376135 0.33402812 0.6239779 0.3008947 0.23254773 0.20977592 0.19507596 0.4266935 0.4290531 0.6352073 0.6305323 0.6061888 0.5497906 0.26826933 0.34949452 0.22257145 0.04703711 -0.012745772 -0.05691834 0.39977986 0.54280317 0.4069128 0.40424597 0.32534862 0.33709228 0.38790765 0.43029046 0.41928154 0.28448957 0.33748984 0.30942345 0.27465943 0.35234386 0.33480477 0.4684361 -0.03294094 -0.12968144 0.098004706 0.27671072 0.29276305 0.2671041 0.5012363 0.43211934 0.16321343 0.2049726 0.