# vtk DataFile Version 2.0
Really cool data
ASCII
DATASET POLYDATA
POINTS 6940 float
-8.716651 -21.88371 83.64494
-8.771531 -21.788795 84.560524
-8.8175125 -21.124416 82.94759
-9.049415 -21.268421 83.645645
-9.073223 -21.232416 84.334724
-8.675241 -21.4125 85.32649
-8.961023 -20.559109 83.01542
-9.259325 -20.45075 83.63441
-9.230133 -20.562656 84.33377
-8.99058 -20.357944 84.86722
-8.902468 -19.879248 83.14343
-9.096667 -19.883835 83.65217
-9.140461 -19.832428 84.26284
-8.742221 -15.101147 86.6872
-8.715649 -15.266682 87.45652
-8.747983 -14.503587 86.60802
-8.809214 -14.620014 87.363205
-8.689753 -14.599649 87.99398
-8.694614 -13.850848 86.74976
-8.669991 -13.887675 87.41525
-8.530859 -13.953869 88.257385
-7.741878 -22.672533 82.804596
-7.8549266 -22.663797 83.32735
-7.9153986 -22.606464 84.421455
-7.794482 -22.04154 82.07352
-7.97662 -22.304152 82.65045
-8.149348 -22.441372 83.48512
-8.409106 -22.176603 84.53363
-8.160036 -22.169403 85.297935
-8.226891 -21.826088 85.88979
-7.989763 -21.566135 82.07606
-8.439057 -21.440403 82.5922
-8.46537 -21.485481 85.67765
-8.19779 -21.447056 85.99064
-7.8136315 -20.95802 81.92422
-8.501167 -20.431547 82.578026
-8.145575 -20.660025 85.99613
-8.346753 -19.45983 84.84225
-8.391756 -19.326494 83.45838
-7.8075366 -18.915674 84.22096
-8.421937 -15.768671 86.94594
-8.133952 -16.2017 87.44439
-7.987883 -16.08216 88.228966
-7.611965 -14.932367 81.34872
-7.667037 -15.071681 82.21249
-8.382322 -15.2465315 86.060844
-8.392394 -15.4608135 86.29574
-8.357787 -15.425475 88.26226
-7.824335 -15.684996 88.80008
-7.7111983 -14.615912 81.09979
-8.014407 -14.270855 81.67135
-8.164501 -14.076821 82.24626
-7.6729455 -14.073155 83.3312
-8.014802 -14.672755 85.538574
-8.498641 -14.662787 88.409485
-8.107743 -14.434658 89.15676
-7.8005905 -13.754667 81.20191
-8.115143 -13.56379 81.748856
-8.201325 -13.535562 82.49349
-7.8802533 -13.726753 85.392624
-8.4746895 -13.195704 87.72298
-8.369801 -13.600281 88.41643
-8.115148 -13.544792 89.35366
-7.811331 -13.172185 89.93078
-7.8954763 -12.869704 81.79786
-7.956321 -12.9291315 82.61412
-7.804456 -12.961175 85.901505
-8.237179 -13.003574 86.74987
-8.378338 -12.625993 87.68802
-8.299959 -12.674818 88.659744
-8.078902 -12.383906 89.106094
-7.8599043 -11.653787 87.8772
-7.9152393 -11.771747 88.43921
-7.7084084 -11.91651 89.25873
-7.098123 -22.709259 82.03506
-7.342859 -22.826586 82.64067
-7.293603 -22.97309 83.49195
-7.294047 -22.88701 84.31491
-7.634823 -22.568962 85.23165
-7.269547 -22.288853 81.805695
-7.520805 -22.329956 85.73523
-7.551884 -22.080614 86.030815
-6.6182823 -21.839664 94.81243
-6.5643816 -21.918745 95.22351
-7.0067143 -21.744242 81.35626
-7.530908 -21.48795 81.618996
-7.5805125 -21.18642 86.41091
-6.7976737 -21.255995 92.52163
-6.8544335 -21.291931 93.64335
-6.878159 -21.201183 94.57068
-6.793671 -21.234556 94.89623
-7.074893 -20.38467 81.45781
-7.544013 -20.917376 86.41415
-6.7478395 -20.564749 91.68385
-6.934511 -20.269312 92.49729
-6.9850254 -20.719444 93.23159
-6.8769827 -20.632559 94.36168
-6.6832905 -20.752205 95.04078
-6.9011955 -20.088505 81.6752
-7.5313287 -19.398626 82.74817
-6.7796593 -18.969683 87.04203
-6.765754 -19.663122 92.54287
-6.848345 -19.788837 93.09354
-6.838573 -20.133589 93.940865
-7.2767644 -18.825075 83.59615
-7.245891 -18.73643 85.727234
-7.2346354 -18.191074 86.21639
-6.812516 -18.04886 87.9359
-6.868151 -17.865688 84.73766
-7.4147716 -17.862276 85.2878
-7.3748364 -17.310999 86.93768
-6.950001 -16.21626 82.35934
-6.743056 -16.641476 84.96973
-6.9223604 -16.191454 90.88856
-6.7865796 -16.710073 91.180824
-6.605093 -16.680746 92.35592
-7.137455 -15.224382 80.8771
-7.4295535 -15.395853 81.372635
-7.4145026 -15.357122 82.24275
-7.585191 -15.0057745 89.33676
-7.1777334 -15.400993 90.46653
-7.124758 -15.496222 91.64882
-7.1172647 -15.320273 92.39431
-6.8607073 -15.014133 93.10209
-7.097315 -14.066772 80.21347
-7.442666 -14.433418 80.75516
-7.343814 -14.28521 83.61963
-7.3953648 -14.458173 84.94418
-7.302785 -14.683495 91.46781
-7.365797 -14.1269245 92.27954
-6.8668303 -14.453722 93.25254
-6.8931694 -13.724641 80.18605
-7.339675 -13.625145 80.63974
-7.5200515 -13.320736 90.66905
-7.38344 -13.727484 91.86339
-7.223412 -13.718813 92.409996
-6.901046 -13.787617 93.23375
-7.2205524 -12.991544 80.87824
-7.5745883 -12.868881 81.38207
-7.4232535 -12.667551 83.1654
-6.8249927 -12.388841 84.49576
-7.3217487 -12.458313 85.62425
-7.615096 -12.44975 86.44754
-7.5036945 -12.491464 90.11059
-6.8691483 -12.647188 91.49742
-7.072506 -13.15077 92.41637
-7.079354 -12.274211 81.94649
-6.6404443 -11.747453 82.15292
-7.4779553 -11.836725 86.76185
-7.6165686 -11.416729 88.21549
-7.3304462 -11.710365 89.28295
-7.4697814 -12.03636 89.77605
-6.987932 -9.992575 82.776764
-7.079552 -9.910009 83.2001
-6.60522 -10.659222 85.798935
-7.2475595 -11.190993 87.614746
-6.9580517 -11.079695 88.36634
-7.1059093 -9.25346 82.775826
-7.265458 -9.369865 83.43466
-7.077625 -9.226749 84.249565
-6.760282 -9.64261 84.83643
-7.0241246 -8.630544 82.69302
-7.166771 -8.5677185 83.487564
-7.0021296 -8.540788 84.27462
-6.6295733 -8.500878 85.03133
-6.7613387 -7.8655543 82.840416
-6.922721 -7.91498 83.48734
-6.7774353 -7.899161 84.259445
-6.470457 -22.929077 82.12454
-6.5313325 -23.076767 82.56349
-6.5192075 -23.222843 83.47243
-6.47492 -23.130976 84.11621
-5.7141275 -22.751745 91.48492
-5.8519893 -22.749264 92.41704
-5.8552136 -22.657997 93.98982
-5.878949 -22.905975 95.661896
-5.8347893 -22.851526 96.31752
-5.7096844 -22.754816 96.76335
-6.4001255 -22.021837 81.31388
-6.4016623 -22.292597 81.48964
-6.184108 -22.590158 85.13697
-6.8680167 -22.100002 86.02972
-5.7404785 -22.046669 90.06233
-5.877763 -22.282331 90.61989
-6.0696 -22.38602 91.67081
-6.1613398 -22.312202 92.31676
-6.106867 -22.374506 93.45042
-6.355164 -22.27312 94.40664
-6.1675067 -22.444382 95.690056
-6.022548 -22.448446 96.41483
-5.811429 -22.306627 96.85965
-6.419522 -21.279541 81.11841
-6.246832 -21.526245 90.745056
-6.495783 -21.843176 95.37342
-6.0947285 -21.602713 96.38107
-5.855399 -21.82618 96.81097
-5.640767 -19.96181 80.32669
-6.093449 -20.367678 80.882225
-6.4945087 -20.141699 81.41734
-6.1023207 -20.444878 89.515976
-6.404827 -20.62386 90.931786
-6.556578 -20.657701 95.16963
-5.927563 -20.84034 96.14076
-5.940205 -19.14531 81.17113
-6.5911894 -19.080414 87.183815
-5.6060367 -19.730318 88.29489
-6.2568684 -19.883663 90.641884
-5.674885 -18.527216 80.68899
-6.143923 -18.624376 81.60968
-6.2742896 -18.409998 82.83557
-6.5421147 -19.05929 92.57398
-5.732505 -17.546623 80.96352
-5.773601 -18.023205 83.47778
-6.2756867 -17.560583 88.529945
-5.8860497 -17.471617 89.78214
-6.3405294 -17.049618 90.98524
-5.903875 -17.866634 92.00637
-6.053299 -17.297455 92.90255
-6.097406 -16.286047 80.807106
-6.4671397 -15.652399 93.383575
-6.138684 -14.914901 93.9824
-6.69179 -14.575709 80.10027
-6.1709785 -14.507861 94.02734
-6.4820857 -13.773685 79.95758
-6.510384 -13.8142 93.79676
-6.1301336 -12.862749 80.16237
-6.387853 -12.746672 80.42038
-6.206225 -12.585232 92.74929
-6.5113826 -13.084609 93.298874
-5.88316 -11.723003 80.89114
-6.4520545 -12.300459 90.60029
-6.4939065 -10.516112 86.51846
-6.265006 -9.396616 81.78047
-6.5764027 -9.500303 84.882065
-6.062249 -9.950324 86.48245
-6.115444 -10.108609 86.94807
-6.400335 -8.427751 81.9709
-6.381445 -8.601804 85.26306
-6.116226 -7.951865 81.98363
-6.4899573 -7.7006693 82.576744
-6.5333047 -7.466637 83.572426
-6.440164 -7.5838757 84.38219
-6.0748754 -7.34593 82.775566
-6.238208 -7.25503 83.63373
-6.2802157 -7.3038235 84.11895
-5.3255534 -22.980453 82.03289
-5.9148717 -23.251358 82.86254
-5.7339754 -23.223867 83.79324
-5.6524773 -22.990314 84.33646
-4.820827 -22.717995 90.02241
-5.179947 -22.899536 90.85586
-5.373663 -23.029875 91.78097
-5.157808 -23.022747 92.524025
-5.4002223 -22.843973 93.50303
-5.199006 -23.356516 95.59632
-5.3381076 -23.167543 96.49588
-5.142364 -22.987226 96.94048
-5.314264 -22.062586 80.9012
-5.8063736 -22.372236 81.418274
-5.859453 -22.471146 84.874596
-5.1604095 -22.27096 89.444435
-5.342446 -22.575964 90.20856
-5.428911 -22.349722 97.11518
-5.523942 -21.409212 80.77899
-5.3395867 -21.71733 97.187965
-5.192878 -20.456188 80.19816
-5.010442 -19.378468 79.18878
-5.3736353 -19.302889 79.9151
-4.7932205 -18.1071 77.91441
-5.0048428 -18.465998 78.353676
-5.420186 -18.650354 79.61376
-4.7757497 -17.668697 77.809364
-5.13034 -17.465843 78.61045
-5.2909565 -17.74786 80.06568
-4.963295 -18.100153 94.27816
-4.7630916 -16.887148 77.991
-5.239541 -16.543186 94.13406
-5.620876 -15.569506 94.13756
-5.8145304 -14.560225 79.78923
-4.960863 -14.622873 95.0317
-5.453411 -13.268187 79.64059
-5.3353777 -13.330471 95.430275
-4.8808775 -13.372429 96.243286
-5.18232 -12.507947 79.71734
-5.554779 -12.456041 93.674416
-5.366757 -12.569126 95.49438
-5.0222535 -12.434244 96.397316
-4.683734 -12.077527 96.94083
-4.980912 -11.865889 79.856384
-5.460185 -11.753664 80.44903
-5.753618 -11.794834 90.51213
-5.1851068 -11.978936 91.379684
-5.1481214 -11.769327 93.69637
-5.33449 -11.736496 94.67989
-5.223784 -11.295969 95.56894
-5.1413507 -11.572146 96.102135
-4.7386665 -11.543847 96.85332
-5.230491 -10.192037 80.935356
-5.3580747 -11.115322 89.38002
-4.891814 -10.8647995 94.10998
-5.066302 -10.388317 94.81894
-5.1067023 -10.640854 95.44515
-4.8515406 -10.644296 96.35799
-4.700151 -10.740417 96.77014
-5.242929 -9.968368 81.220795
-5.797661 -9.03073 81.56625
-5.4074793 -9.912541 87.762115
-4.769281 -9.743071 94.90351
-4.811351 -9.76062 95.28408
-4.8439403 -10.146835 96.167496
-5.6603646 -8.455425 81.5985
-4.670179 -8.52666 89.99652
-5.517241 -7.764955 81.984924
-5.764814 -7.4283457 82.30857
-5.2780986 -7.4932756 88.16503
-5.0279646 -7.575255 89.4844
-4.8029294 -7.554343 90.04235
-5.453211 -7.3158937 82.563354
-5.5600386 -7.0684805 83.63126
-5.7254715 -7.103415 84.255226
-5.092431 -6.8000903 86.75788
-5.1836057 -6.5156274 87.31876
-5.0637293 -6.6244535 88.67395
-5.036861 -6.6173377 89.13155
-4.85384 -6.8871336 89.88279
-4.8373036 -5.853274 86.88912
-4.961253 -5.837501 87.47121
[...]
POINT_DATA 6940
SCALARS features_00 float 1
LOOKUP_TABLE default
0.67600083 0.69128484 0.6773918 0.7296081 0.7475034 0.6678895 0.71255434 0.7652527 0.7714274 0.73437226 0.70304906 0.7368182 0.7285038 0.47216374 0.45484102 0.47166198 0.46558213 0.44018102 0.46702957 0.45784193 0.42473286 0.58406734 0.60254365 0.62417305 0.5533966 0.592036 0.62344223 0.6558397 0.6384945 0.6254446 0.5486171 0.61509216 0.63721824 0.6141137 0.49236166 0.6190837 0.5602501 0.5346302 0.5786543 0.32440513 0.4311795 0.3641171 0.32473058 0.5100721 0.4859607 0.42969137 0.43209183 0.40112412 0.28546184 0.5291157 0.5501981 0.5559974 0.4393631 0.37821168 0.41389734 0.3474535 0.550243 0.5744538 0.5722638 0.33398736 0.44386762 0.41588485 0.35754284 0.31155035 0.5546216 0.5433152 0.34990147 0.4320529 0.43942603 0.41188723 0.38940966 0.37487012 0.39585817 0.37493423 0.52312034 0.56000435 0.57887286 0.59345275 0.61884904 0.5159372 0.61401665 0.60611904 0.4792624 0.50284505 0.4474263 0.482015 0.5562241 0.45321524 0.4449895 0.4447747 0.4566545 0.34610474 0.52254844 0.38262093 0.3492539 0.3973475 0.4156492 0.4253257 0.30876622 0.41973317 0.101677954 0.29414678 0.33324617 0.3718126 0.21631348 0.17261355 0.16633396 0.06043852 0.036722854 0.1406858 0.15496996 0.3299914 0.07560015 0.14625867 0.15322666 0.22496967 0.46585596 0.46585447 0.45746684 0.2573175 0.12994143 0.27444592 0.35277674 0.36822858 0.48019516 0.52204466 0.3304914 0.16374202 0.29897648 0.37363708 0.38179386 0.44051158 0.5020087 0.26967984 0.3345283 0.36721444 0.38481262 0.46796829 0.52046657 0.4097169 0.029212654 0.21133971 0.33637497 0.31959727 0.26177064 0.3270663 0.4481721 0.29789567 0.2733218 0.35702723 0.34568408 0.33868212 0.5350105 0.5584372 -0.021477483 0.2524848 0.27158046 0.6676805 0.62876517 0.52882797 0.31107065 0.7025473 0.66545415 0.58582383 0.4386352 0.6984563 0.6775291 0.6267497 0.4793291 0.50759554 0.54620796 0.5582348 0.37798735 0.37638924 0.45738563 0.6157022 0.6600161 0.6817347 0.41001785 0.43106598 0.5498936 0.57425773 0.36200246 0.38598132 0.39782488 0.3990794 0.43743694 0.4815361 0.57437944 0.6252341 0.6510354 0.35278755 0.4411597 0.5086263 0.5459482 0.6017567 0.118126325 0.2073552 0.24718642 0.25008434 0.40315732 0.41702288 0.46928793 0.097571805 0.049671397 -0.2265378 0.26748237 0.04975366 0.09858388 0.13521673 0.1787819 -0.089498304 0.07005474 -0.039610695 -0.10176726 0.09063058 0.004423462 0.15919773 0.21241769 0.30105668 0.22664437 0.4552365 0.24524838 0.37914813 0.3417892 0.29157612 0.326256 0.21299154 0.3342954 0.18587941 0.21098965 0.0008869916 0.48583078 0.3140034 -0.03563042 -0.016963527 0.64996976 0.32932836 0.6446338 0.6896794 0.6688874 0.6151042 0.66187525 0.6530644 0.6327329 0.31548274 0.45724255 0.4822411 0.4731337 0.27752906 0.34311175 0.3652686 0.35553634 0.39298144 0.65197134 0.7095494 0.7158916 0.2654522 0.3600786 0.5154996 0.2382837 0.32694814 0.683969 0.25143233 0.6291229 0.12833098 0.21170175 0.13155425 0.41017494 0.3517141 0.17986612 0.4491153 0.38636678 0.08928805 -0.09480361 0.487615 0.023808882 0.114158034 0.3339576 0.07939351 0.23756447 0.3071289 0.3810746 0.18878683 0.15494148 0.40333098 0.46764648 0.49578243 0.14380305 0.14696154 0.03486888 -0.08519945 0.11973473 0.28281 0.4163628 0.4680984 0.49661106 0.06715015 -0.06760451 0.20072311 0.30267724 0.3864313 0.46712667 0.48311925 0.106900536 0.42901587 -0.018308155 0.30634993 0.34025913 0.43464053 0.49867904 0.15446159 0.5832999 0.63895077 0.38808823 0.31070036 0.28759325 0.6106805 0.57922304 0.55735123 0.4718966 0.49076742 0.44849953 0.4158575 0.35213012 0.50393766 0.51741254 0.52370423 0.4803757 0.5354849 0.6317644 0.6815287 0.16059698 0.17651203 0.13395299 0.13090247 0.17401388 0.28494477 0.31714255 0.32715312 0.30345768 0.4307601 0.59267104 0.7070389 0.7058779 0.096835084 0.16603589 -0.05127391 0.030810706 0.68540186 0.62743974 0.11011707 0.62775326 0.16707659 0.12202243 0.36832976 0.30395406 0.23601627 0.24630706 0.37832814 0.40858662 0.1080136 0.26494953 0.32952982 0.43759558 -0.025607664 0.14373723 0.18699794 0.46879888 -0.08617768 0.3763861 0.21310411 -0.08059848 0.08709169 0.16529159 0.36467206 0.37429297 0.14808664 0.39988402 0.45949066 0.1619799 0.16736777 0.4846576 0.15328647 0.123635165 -0.40192342 -0.0913047 0.4981937 0.48475516 0.09710267 0.08454339 -0.35510224 -0.38798314 0.48707032 0.48029566 0.094484374 -0.07336725 -0.024720047 -0.11289325 0.18203713 0.24276039 0.4079595 0.45430392 0.12883176 0.17653537 0.3086879 0.48441857 0.43389636 0.18886498 0.1675122 0.44057482 0.44898427 0.48403826 0.5397719 0.35009357 0.31653228 0.2885788 0.4395832 0.48969296 0.50613403 0.5133681 0.48193878 0.5306628 0.36353144 0.4572663 0.5348582 0.5469093 0.5477899 0.50097525 0.5358242 0.5229428 0.4806415 0.46965784 0.555605 0.5809032 0.32658073 0.06539341 0.07275003 0.26023585 0.2900074 0.08092639 0.08817175 0.27398434 0.17645657 0.08961052 0.13071592 0.22547743 0.20639873 0.22988692 0.30390725 0.42575854 0.531492 0.63286734 0.6390681 0.53997016 -0.022529054 -0.010658298 0.55136687 0.6506871 0.22502092 0.15504995 0.4791147 0.65374017 0.3595358 0.47829425 0.6374935 0.37074065 0.2749831 0.4006896 0.56194204 0.3818736 0.00915882 0.3167749 -0.08095404 0.36289304 0.35759425 0.20417544 0.44423318 0.2479112 0.24007127 0.45466655 0.19890532 0.14636527 0.46936718 0.45736215 0.13281673 0.074671626 0.407153 0.45699865 0.050191723 0.34528655 0.44392666 0.44235653 -0.056524746 -0.17539628 0.5277431 0.4834072 0.31053412 0.10800834 0.58577216 0.55153453 0.50736976 0.5040741 0.4910962 0.4137782 0.37642705 0.5153463 0.5838501 0.62643796 0.59587103 0.48875737 0.46095234 0.38527316 0.37146991 0.53981155 0.6183769 0.6557505 0.5550957 0.65638494 0.5931884 0.540694 0.49130672 0.6410339 0.6203178 0.56032795 0.51852953 0.32483807 0.3396909 0.24770723 0.3165112 0.33155286 0.30005533 0.24432725 0.36155385 0.3183357 0.086181365 0.14359978 0.07134055 0.31682822 0.21967115 -0.07529334 0.08953601 0.075705856 0.10838748 0.19349228 0.26289102 0.40301108 0.48565856 0.52281475 0.18002845 0.36194593 0.03708949 -0.04350232 0.5586324 0.6233436 0.26318654 0.07923802 0.64048696 0.7255026 0.3507605 0.22236581 0.75532544 0.3135903 0.71160257 0.2600231 0.3024088 0.6595905 0.20666668 0.087575704 -0.03944844 -0.18075994 0.09892967 0.21745455 0.21198495 0.26090974 0.38732892 0.26255876 0.3530044 0.28971872 0.39799345 0.19332822 0.092352 0.21164645 0.3848824 0.05771301 -0.109189525 -0.14223559 0.42034522 0.03211446 -0.026770785 -0.07629986 0.45026684 0.034864366 0.2551426 0.2916037 0.5100033 0.47107208 0.42359424 0.41302383 0.34237352 0.1422764 0.63197136 0.5844873 0.53874296 0.4666143 0.32791367 0.36709544 0.32212383 0.24785508 0.53101665 0.6362054 0.6517161 0.62455475 0.6019733 0.45207185 0.38088328 0.30556458 0.6087232 0.66622084 0.6539407 0.43061912 0.40190881 0.6579092 0.6554866 0.49622226 0.43378198 0.61254287 0.61271405 0.5935084 0.56266916 0.5086367 0.4451628 0.5375196 0.5397165 0.5310123 0.50436556 0.33218598 0.34641606 0.31618303 0.48936552 0.19948733 0.29126212 0.27930394 0.22763047 0.19040515 0.48102108 0.4444419 0.40229028 0.16892397 0.07983219 0.1468832 0.11547556 0.40340903 0.38744062 -0.10386955 0.24806547 0.3042075 0.24662192 0.2816152 0.43552554 0.48582911 0.33589044 0.2722479 0.55191475 0.62525 0.43192163 0.39970392 0.28304136 0.71869147 0.42757916 0.38274503 0.79935503 0.38526493 0.32653967 0.7786519 0.35222846 0.21871369 0.6997657 0.0064579174 -0.05717568 0.0006428659 -0.13622871 0.04157502 0.17297927 0.074320495 0.19767731 0.19546331 0.22139445 0.1913779 0.22022223 0.21717942 0.3135534 0.16342317 0.16313389 -0.13947539 0.12808833 0.17541334 -0.12540625 0.27174726 0.28725144 -0.022476196 -0.02709091 0.013970435 -0.05366031 -0.10359074 0.37211978 0.3768359 0.14096017 0.06903808 -0.020446956 -0.020705588 0.06460091 -0.06672928 0.46210793 0.5130647 0.51534307 0.459491 0.4350732 0.28119734 0.16648883 0.08166479 0.12859558 0.31425965 0.30697125 0.28795132 0.55365837 0.5857426 0.5720664 0.1436485 0.15133929 0.50370085 0.48903888 0.4709006 0.5619232 0.6089592 0.63930285 0.6033437 0.6270212 0.3128815 0.57397914 0.5783543 0.56117404 0.40884244 0.34565526 0.39691603 0.53751326 0.5239718 0.48364472 0.4802156 0.45566654 0.3797812 0.40237617 0.43664563 0.44153142 0.41336715 0.4038992 0.42932522 0.34690875 0.41901794 0.39001426 0.33823985 0.61784744 0.56021976 0.52070373 0.35872194 0.21955644 0.24504763 0.27256086 0.5937424 0.32324648 0.08522229 0.4469502 0.45343286 0.072135516 -0.21881685 -0.12869057 0.31697428 0.28049126 0.16458386 0.37553036 0.44952458 0.48969078 0.44145316 0.36590123 0.48512146 0.55112123 0.45841795 0.58934516 0.67661095 0.46379793 0.7479163 0.42314237 0.7283828 0.33386952 0.29122263 0.14327852 -0.07364392 -0.08980241 -0.046576362 0.018746838 -4.804693e-05 0.1348386 0.068996176 0.1623695 0.14399716 0.1762008 0.061901648 0.059771657 0.16877854 0.20960134 -0.087194666 0.18184413 0.16600737 0.06271338 -0.056122676 -0.097985536 -0.17980269 0.18674155 0.18850376 0.057285756 -0.052622832 -0.10428847 0.21239707 0.17021722 0.117693126 -0.047058925 -0.22905892 0.23138174 0.2810416 0.053822346 0.19047463 0.35016614 0.37067068 0.10527509 0.37254047 0.18642652 0.37962854 0.47058618 0.47848064 0.46576393 0.13827549 0.5042349 0.557417 0.46926916 0.4080552 0.5491945 0.18451276 0.58545476 0.5808624 0.5323628 0.55493546 0.35169077 0.5329907 0.5335822 0.4514479 0.449275 0.50350785 0.45071113 0.4306721 0.33004135 0.38606006 0.43359107 0.49019426 0.5049467 0.3885197 0.3860956 0.34715724 0.4788508 0.5273682 0.4578308 0.4789889 0.4829237 0.4651209 0.46118236 0.4085201 0.3886414 0.3923112 0.37291902 0.67621404 0.6798333 0.63660794 0.4483539 0.25366667 0.26538968 0.25146377 0.59778786 0.64515334 0.529536 0.08126044 0.2340652 0.29110572 0.06526411 0.49532706 0.4420191 0.20752099 0.4204601 0.5127573 0.5178745 0.4999513 0.50031155 0.10884105 0.55584455 0.44634518 0.3858876 0.3785479 0.0780954 0.17965236 -0.01764313 0.068374276 0.002691675 -0.08092455 -0.009507563 0.16704713 -0.14305812 0.06929951 -0.06570826 0.20804106 0.13041468 -0.031932022 0.2129277 -0.010468442 0.21813974 0.16621697 0.090961404 0.18427782 0.24248318 0.16635929 0.44883865 0.35476688 0.1898905 0.46456915 0.36350632 0.18523078 0.35706478 0.13739364 0.1573207 0.08151755 -0.10509073 -0.2435917 -0.29577547 0.090161815 0.15895827 0.23009147 0.14609182 0.12333028 -0.22311011 -0.020189688 0.39388293 0.16578779 0.13635124 0.060074843 0.46554434 0.16850784 0.46121114 0.39414895 0.23597643 0.49208593 0.16376577 0.21291703 0.598344 0.59575796 0.5586703 0.47862524 0.33709505 0.49235418 0.46380013 0.4278096 0.45049685 0.45559177 0.5395475 0.47538006 0.26773036 0.35722893 0.3925679 0.5373537 0.5842667 0.57852256 0.40092328 0.46469617 0.5347519 0.52145046 0.5449858 0.5610869 0.52865064 0.4415082 0.513945 0.4589588 0.66816866 0.67555726 0.598528 0.32200128 0.38605273 0.40911704 0.59846425 0.6360504 0.1831985 -0.1719344 0.45514074 0.15064964 0.4084445 0.45080253 0.47206324 0.37177655 0.28069603 0.42848334 0.44305238 0.50772005 0.43832254 0.23771402 0.5404573 -0.0422917 0.50882006 0.5286207 0.47728187 0.42626998 0.0986746 0.11092841 0.358851 0.2088683 0.12011382 0.35179034 0.08635991 0.3538741 0.40355846 0.22636251 0.34595713 0.24179642 0.23391029 0.18013947 0.22444078 0.3701447 0.1789383 0.46393734 0.06832981 0.49306583 0.4913962 0.1490742 0.14279374 0.5093294 0.16064513 0.4938164 0.41873938 0.056351148 -0.025237337 -0.1654127 -0.18058504 -0.066440925 -0.02346994 0.1920234 -0.17038527 -0.06454186 0.24346378 0.13064083 0.39666897 0.26163167 0.36167794 0.49693972 0.3731592 0.4334895 0.28824785 0.57221234 0.53015655 0.4976176 0.44298506 0.42472523 0.31595984 0.23876368 0.44260263 0.4204205 0.41820443 0.41990685 0.3751669 0.52650845 0.43890268 0.24605143 0.6021919 0.5762795 0.3489883 0.43969446 0.5046383 0.54947734 0.5818709 0.53763616 0.5633265 0.5954853 0.60306907 0.43302464 0.43459713 0.60473573 0.5901369 0.64472234 0.6263176 0.5292114 0.5403157 0.55783397 0.5944165 0.5634897 0.46179762 0.35616657 0.21199833 -0.07202018 0.5634452 0.5852667 0.6137055 0.49896193 0.4370443 -0.092265904 0.507803 0.5957695 0.55871725 0.28864434 0.43208832 0.34592158 0.51212823 0.48145616 0.22213769 0.5422962 -0.0015882142 0.5194479 0.5129584 0.12795195 0.4615155 0.20854326 0.36167833 0.15709266 0.4108703 0.13949385 0.53666806 0.0904613 0.55926454 0.51961327 0.5409604 0.48598808 0.05412504 0.48396885 0.41877827 0.13204713 0.3160727 0.08579032 0.44281816 0.031532146 0.4989835 0.487059 0.150394 0.50443417 0.24261472 0.5002023 0.3768974 -0.09719105 0.02507475 -0.11840134 0.13512479 -0.12167466 -0.13267031 0.27161014 0.16048408 0.35998172 0.26072502 0.36654693 0.30243087 0.300815 0.32607192 0.45471522 0.44281253 0.41636932 0.3910355 0.37077552 0.21577232 0.2630424 0.4105342 0.40244472 0.25516626 0.39375132 0.2874833 0.48360533 0.45816436 0.21753983 0.21146743 0.5463481 0.5362561 0.46949738 0.51857066 0.53739023 0.54689026 0.5811688 0.62709504 0.63300896 0.46678343 0.517354 0.5537224 0.61453664 0.6378471 0.63521713 0.40260312 0.6375704 0.3607773 -0.024552822 -0.042894475 0.5246589 0.6118521 0.6369881 0.3581605 0.28578535 0.04359676 0.42557377 0.61276066 0.5728722 0.2537244 0.49847883 0.40728143 0.45617145 0.35147426 0.3686936 0.5053204 0.43482155 0.37062174 0.08083182 0.1676181 0.48862785 0.45250046 0.18642955 0.28273168 0.38933173 0.31052145 0.26091295 0.29555783 0.27340207 0.16863713 0.4856035 0.406384 0.11533455 0.5623633 0.62614787 0.61026514 0.56355286 0.5441545 -0.2056414 0.30891085 -0.075738885 0.42629415 0.21278948 0.49265626 0.32351816 0.5186604 0.34576577 0.50994587 0.27957153 0.3457788 0.07631443 0.22472996 -0.05178093 0.11412309 0.073958986 0.051676065 -0.021486513 0.1408573 -0.0014592707 0.08710684 -0.022806462 -0.027274966 0.15031119 0.33333048 0.3587492 0.32174894 0.3560434 0.39964342 0.3072985 0.21132316 0.23494387 0.35465816 0.29061478 0.13605225 0.33277923 0.42936426 0.12526098 0.2651656 0.38838205 0.39513528 0.44476256 0.4299125 0.5161315 0.6024535 0.6246561 0.47417516 0.56314766 0.58115685 0.5992178 0.07636641 0.09286216 0.38580358 0.3231989 0.2179902 0.08181675 0.08655861 -0.047328126 0.13873634 0.32599166 0.5455668 0.5639092 0.54861844 0.24031833 0.21780303 0.16594148 0.4709379 0.27727497 0.22767578 0.19686198 0.12755981 0.020833239 0.2932929 0.2424496 0.23048112 0.2889712 0.2137499 0.18243751 0.3086009 0.26244888 0.15398744 0.2983637 0.32337677 0.30500588 0.18443404 0.103050396 0.2690664 0.13411246 0.023737146 0.20821169 0.41827863 0.2981778 0.12254665 0.5929632 0.5233623 0.20793635 0.6287053 0.6050562 0.32232332 0.626053 0.61142397 0.27224392 0.31354707 0.5577262 -0.13459277 0.45757288 0.25818986 -0.17192769 0.21445954 0.15678157 0.45709294 0.31920952 0.24493957 0.49791563 0.31839523 0.32905188 0.5242051 0.34945774 0.3419108 0.49790436 0.3441248 0.45313704 0.41066578 0.16060382 0.20932613 0.17257428 0.16937047 0.023986135 -0.16726817 -0.24823107 -0.06516643 -0.08366859 0.032184772 0.19051059 0.1939998 -0.008118901 -0.016629666 -0.13969617 0.10091475 0.23890133 0.19732186 0.066228166 0.20435798 0.13254882 0.04005871 0.23695324 0.11334029 0.040269744 0.07904385 0.20546046 0.32112533 0.16192888 0.100616835 0.4388856 0.28480858 0.12898684 0.13081793 0.25698793 0.52051073 0.10763632 0.070035584 -0.00020086765 0.14623778 0.14902213 -0.047702625 0.17914271 0.21453801 0.1750412 0.05887021 0.14052156 0.016376413 0.043936837 0.34349424 0.013505995 0.01475497 0.08659025 0.20140685 0.3388592 0.1649622 0.0887676 0.3569439 0.36889875 0.12633665 0.06416107 0.3648129 0.33350098 0.09033136 0.07132286 0.009412808 0.27326813 -0.0045722276 -0.03033325 -0.045188766 -0.12187438 0.45004654 0.37357968 0.10888395 0.007902302 -0.024027795 0.21050297 0.26891428 0.4999603 0.4212265 0.34410483 0.26259917 0.0546412 -0.12338318 -0.26039755 0.28952527 0.56953037 0.49422473 0.13610788 0.34491208 0.55723095 0.44940665 0.34257692 0.5085845 0.36246634 0.21469074 0.3048404 0.17589702 0.038699895 0.030403577 0.1333575 0.08149584 0.1368838 0.17870499 0.2508441 0.28951037 0.4454571 0.35357398 0.25689384 0.31147555 0.47092515 0.41815 0.31555793 0.40874216 0.32366526 0.32661313 0.12493134 0.24883088 0.018835658 0.22562645 0.28705513 0.0345781 -0.20050639 -0.3310039 -0.0807832 -0.19425012 0.2784764 0.29213828 0.009610184 0.10778216 -0.11290395 -0.17052436 0.043304596 0.04930707 0.021299317 0.01757858 0.13694614 0.25540978 0.2885919 -0.095891476 0.25108308 0.06419948 0.17983039 0.35523313 -0.10442333 -0.05119646 0.5025031 0.11259432 0.56808734 0.56488526 0.53520626 0.3617478 0.54774696 0.07889084 0.09379019 0.07672436 0.0054891706 -0.0011465102 0.116887435 0.1806882 0.22038278 0.20652094 0.08075796 0.075824656 0.12338222 0.06494107 -0.040475406 0.09477907 0.3114204 0.35851383 0.37946147 -0.29284802 0.36656108 0.3445566 -0.20045011 -0.48910105 0.29670346 -0.4161507 -0.31774068 0.35378572 0.43613547 -0.43010885 0.36331546 0.3680606 0.38081652 0.28544182 0.09948166 -0.35030532 -0.37523803 0.36229247 0.26870003 0.19670576 0.13507938 0.34550095 0.058000863 -0.032361574 -0.27011386 -0.3457258 -0.35600215 -0.0897534 0.22331783 0.031055652 -0.09218159 0.2714528 0.28268445 0.24014667 0.28559768 0.33127606 0.24526325 0.17071864 0.2784403 0.2979604 0.27245706 -0.118737824 0.3115972 0.31546277 0.01253441 0.343158 -0.0022398233 -0.19653326 0.31757972 0.3436625 0.35297433 -0.005582679 0.19125636 0.17623071 0.14878982 0.20761578 0.29561666 0.326001 -0.08857152 0.15984915 0.2726152 0.263082 -0.054459933 0.1048586 0.19846264 0.22488241 0.22758955 0.0029122904 0.1305669 0.35436428 0.41346568 0.22515081 0.13206102 0.5075115 0.56383836 0.44155818 0.36178795 0.5893996 0.58813727 0.5252687 0.42750895 0.16104428 0.10795606 0.03442742 -0.13727418 -0.043305665 0.14851281 0.21597296 0.19528589 0.11297361 0.035781816 0.056371287 -0.067570426 0.14030446 0.2693084 0.35141885 -0.27184513 0.27883857 0.31892323 -0.11323728 0.26568604 -0.11216288 0.34611714 0.35121328 -0.08537395 0.35261026 0.36327267 0.36151963 0.36596584 0.35169482 0.36092615 -0.40998498 0.3144223 -0.37615928 -0.16097693 -0.055737972 0.26550272 -0.13940586 0.2703552 0.2672599 0.28372878 -0.09182964 0.33327138 0.3449603 -0.04700102 -0.2021225 0.3188809 0.31995445 -0.14906822 -0.047851637 0.33620322 0.3419407 0.06922211 0.06366166 0.3107878 0.3760714 0.3650463 0.32376146 0.28864026 0.27371216 0.30064067 0.12593156 0.09939059 0.014809728 0.43179625 0.4360212 0.35405052 0.24224678 0.0073680375 0.035248924 0.26986277 0.31518146 0.019491088 -0.035916556 0.34488258 0.16973336 0.45096004 0.518286 0.35092774 0.27080292 0.5425215 0.5749514 0.4662661 0.37510294 0.25295454 0.24158913 0.2150279 0.09601686 0.28382757 0.282875 -0.06473887 -0.3085116 0.1797709 0.30495974 -0.10958107 -0.08782959 0.16269289 0.07365701 0.06350057 0.13712166 0.3048873 0.31987536 0.17931676 0.3665142 0.36632234 0.15944235 0.05996564 0.3543142 0.2970822 0.33692688 0.27405593 0.32581806 0.28541976 0.24834156 -0.15744498 0.3290754 -0.019101042 -0.42253873 0.06164322 -0.1332416 -0.2746846 0.08992359 0.06191533 0.22186816 0.24726953 0.052630246 0.26740408 0.10389919 0.30231553 0.29410857 0.12871534 0.3153805 0.0573241 0.31145924 0.3204981 -0.055071905 -0.052305013 0.2825083 0.30576468 -0.0057732165 -0.25315893 0.31251454 0.28326705 -0.3363656 -0.5847386 0.12520136 0.32027185 -0.06959308 -0.020574406 0.31063193 0.23958045 0.24859443 0.22266561 0.3062973 0.12904622 0.03560134 0.3447758 0.421979 0.41728517 0.33772868 0.30532596 0.21829818 0.08128555 0.09925786 0.2485469 0.032980256 0.10534538 0.25830227 0.2936585 0.34944388 0.2747558 0.4789407 0.38436496 0.35121036 0.28250998 0.27055746 0.26476154 0.19232541 0.3274752 0.30251706 0.028283365 0.1949095 0.3909367 0.36197686 -0.11296313 0.4023786 -0.15298034 0.39131212 0.4086412 0.3221395 0.032707863 0.15778172 0.3114673 0.33712065 0.3489503 0.35919636 0.1856683 0.32040933 0.33691525 0.29521173 0.25508958 0.2955915 0.45539427 0.36387432 0.18824796 0.40548468 0.297351 0.24171314 0.25536376 0.17597193 0.16937482 0.26348376 0.10155985 -0.056536704 -0.19917923 -0.08236862 0.05706265 -0.11457085 -0.1936969