# vtk DataFile Version 2.0
Really cool data
ASCII
DATASET POLYDATA
POINTS 6934 float
7.3892565 10.728212 49.388756
7.190319 10.6984 50.644505
7.1152577 10.89765 51.6175
7.277769 10.90064 51.973835
7.255485 11.8233595 49.025063
7.2023335 11.675362 49.563473
6.9443607 11.5494175 50.69389
6.9554424 11.629845 51.56526
7.124625 11.435862 52.086952
7.359066 12.185429 49.069088
7.23658 12.298817 49.655373
7.080178 12.274028 50.493103
7.0655766 12.30097 51.34595
7.241116 12.275229 52.07423
7.314262 12.911432 51.011154
7.3824234 12.859463 51.636894
7.6440554 10.217658 49.777756
8.08485 9.806059 50.658905
7.9090676 10.009925 51.438972
8.081127 10.213161 52.29057
8.163615 10.492366 48.3315
7.7000985 10.598855 48.864243
7.535173 10.455545 49.34973
7.5371256 10.376957 50.423912
7.5071993 10.422987 51.74826
7.508503 10.790019 52.23882
8.12166 10.84874 53.18059
7.9066744 11.781587 48.28453
7.521809 11.399073 48.7515
7.391574 11.2254 52.47478
7.932264 11.285728 53.111057
8.332232 12.000917 53.86603
8.16083 12.526619 48.24539
7.73793 12.314712 48.58005
7.4513197 12.695175 49.29616
7.5651665 12.491646 52.5781
7.951173 12.441814 53.305977
8.21121 12.536327 53.75908
7.9244323 13.020273 48.898285
7.701742 13.096787 49.450474
7.812183 13.427635 50.645336
7.689069 13.349007 51.623676
8.215637 13.345224 53.36802
8.132495 13.6515465 50.192036
8.143094 13.994809 51.51966
8.137532 13.954586 52.454582
8.93242 9.349549 49.51141
8.553651 9.795965 48.730534
8.857613 9.569446 50.522923
8.508724 9.7028 51.727123
8.401574 10.038116 52.287846
8.895168 10.1604 53.33455
9.24408 10.345916 54.198696
8.393415 10.661745 53.409767
8.926144 10.7544775 54.278255
9.219265 11.042413 54.80839
8.777687 11.666382 54.55524
9.131184 11.42199 54.943172
8.51475 12.378327 48.006668
9.1130905 12.267385 54.942238
8.491338 13.273407 48.769867
8.669091 13.28375 54.13637
9.158425 13.342205 54.794937
8.465056 13.64896 49.572487
8.8617525 14.25723 50.85898
8.500773 14.329827 51.602074
8.5953245 14.433578 52.51736
8.666985 14.169982 53.404778
9.06743 14.257857 54.233845
9.033685 14.647071 51.965633
9.107203 14.887281 52.747406
9.139555 14.88055 53.395565
9.30928 14.771867 53.94462
10.253438 3.943636 49.55334
10.187471 3.9953377 50.216602
10.207641 4.5161514 49.201256
10.001601 4.5881033 49.686127
10.01487 4.4377813 50.22531
10.278326 4.584742 51.050915
10.032453 5.6491966 49.82254
9.98621 5.5180683 50.58638
10.286118 5.113222 51.137383
10.111596 6.784285 49.510265
9.989795 6.5279617 50.250134
10.325325 6.1686063 51.349045
10.383795 7.7129626 47.794533
9.868056 7.3455973 49.996807
10.341494 7.5534434 51.16028
10.177222 8.903677 44.86065
10.103306 8.695926 45.52854
10.23676 8.6830015 47.096413
9.685187 8.412645 48.644352
10.188036 9.0407915 51.182964
9.990259 9.612936 44.83465
9.776396 9.50955 45.34282
9.758632 9.941275 46.809628
9.997116 9.207952 47.430504
9.399982 9.55759 51.31897
9.290667 10.019035 53.484848
9.593032 10.203492 54.231094
10.072325 10.386617 44.866688
9.853151 10.1781025 45.372574
9.908823 10.240136 46.187443
9.617929 10.461094 54.588226
9.59992 10.854475 54.9717
10.38434 11.131885 44.764706
10.123409 10.904731 45.574665
9.485674 11.690857 55.220707
9.72016 12.608547 47.506653
9.552725 12.614543 55.169086
9.978049 13.215473 48.084625
9.404619 13.344968 48.452415
9.840798 13.441307 55.192913
9.332572 14.188361 50.62146
9.235456 14.537041 51.203426
9.512391 14.591348 54.511967
9.760001 14.181531 54.94685
9.672294 14.732614 51.59766
9.812167 15.296997 52.747677
9.71079 15.246885 53.50501
9.746846 15.000456 54.209858
9.885894 14.707926 54.6935
11.035421 3.113357 49.752636
11.086943 2.8281324 50.598663
11.071526 3.0093417 51.107872
10.648359 3.9264665 49.082703
10.53472 3.6685815 49.50555
10.518131 3.481482 50.510777
10.858183 3.6509182 51.31471
11.14262 3.678691 51.750626
10.533303 4.519597 48.867588
10.983753 4.5929894 51.9181
11.01673 5.508781 48.495113
10.485672 5.209 51.443092
10.951276 5.468699 52.043232
11.08207 6.9608274 47.794174
10.546958 6.581769 48.727947
10.557734 6.461331 51.53106
10.8634 6.7679563 51.66791
10.858676 8.262378 44.993946
11.118857 7.6203313 46.469463
10.487828 8.150485 47.40389
11.287807 7.442274 51.817352
10.724328 9.098865 44.26254
10.630516 8.725355 44.63586
10.549202 8.331059 46.482594
10.768389 9.571511 44.18897
10.4024315 9.216517 44.461475
10.392579 9.944729 52.778687
10.123105 10.039715 54.16187
10.789155 10.473733 44.14322
10.775855 10.439273 54.66553
10.343439 10.775322 55.124283
10.93847 11.379095 44.211716
10.630915 11.469361 44.535297
10.41652 11.746606 55.571995
11.087921 11.912945 44.310596
10.904134 12.128758 44.756474
10.876922 12.354123 45.294563
10.381208 12.035575 46.73338
10.215561 12.462585 55.500824
10.711178 12.526934 55.63339
10.414996 13.121817 47.97149
10.563497 13.447009 48.38179
10.308959 13.599998 55.35394
10.440492 13.138041 55.565483
10.733268 13.613579 48.79754
10.716957 13.734922 49.156895
10.588475 14.472304 51.768517
10.450941 14.300289 55.187614
10.042983 14.906445 51.9321
10.514448 15.315803 52.677128
10.266274 15.462955 53.33317
10.394602 15.158166 54.319485
10.516266 14.83182 54.81007
10.365264 15.522935 53.32282
12.398507 0.96109676 68.773964
12.368808 0.7848612 69.406425
12.373513 0.90788734 70.46022
11.899384 2.3451414 50.06207
11.787044 2.2557502 50.539
11.921435 2.26026 51.068104
12.3183775 1.5733294 68.62084
12.1915 1.6310279 69.52731
12.180675 1.8342912 70.30913
12.371718 2.0283465 71.09267
11.42062 3.1965811 49.25624
11.796061 2.620332 49.789017
11.489633 2.4502542 50.667633
11.625378 2.6235466 51.382782
11.949953 2.9064589 51.91308
12.301756 2.345824 68.89114
12.189213 2.3260121 69.38899
12.255077 2.6785018 71.4355
12.442495 2.924014 71.95748
11.6824 3.7570775 48.9646
11.555327 3.5457292 51.98784
12.003572 3.9870372 52.65137
12.338997 3.0433464 69.50877
12.239492 3.3742049 70.53517
12.2170315 3.3645558 71.29278
12.398195 3.6723397 72.05165
11.983762 5.136463 48.268787
11.951177 4.6491365 52.47246
12.154369 5.0373673 52.972294
12.319463 4.0702257 71.3667
12.191334 6.260741 46.966072
12.210734 5.7066326 47.62341
11.505956 5.8348827 52.496346
11.911759 5.590522 52.849674
11.789619 7.34771 45.528374
11.615889 7.014665 46.551163
11.734089 6.127758 52.733456
11.6692505 8.145018 44.572807
11.507212 8.810811 44.201794
11.355002 8.535292 44.47838
11.533827 7.926236 51.771904
11.610074 9.67412 43.94583
10.923352 10.349344 54.022808
11.404936 10.508564 43.890217
11.274331 10.621489 54.520874
11.777794 10.66958 55.281193
12.2174425 10.592622 56.77675
12.206661 10.863702 57.35321
12.402047 10.960786 58.260727
12.422529 10.962965 64.97061
12.278878 10.6879015 65.59251
12.344108 10.903138 66.50603
11.483944 11.43324 43.999638
11.833296 11.858562 56.41057
12.032282 11.425048 57.67897
12.316436 11.266498 58.18562
12.454796 11.423184 64.47027
12.224627 11.348907 65.44047
12.272683 11.20791 66.26589
11.725109 12.059757 44.19672
11.532838 12.377051 44.56697
11.690621 12.335311 46.83375
11.846409 12.528878 47.482494
11.793049 12.509936 56.219784
12.070483 12.146384 57.150574
12.476476 12.071106 63.979633
12.375052 12.336529 64.67538
12.405317 12.278604 65.46564
11.702441 12.60218 44.915405
11.614848 12.616487 45.273277
11.894684 13.511327 56.04164
12.269171 12.882713 56.843426
11.329518 13.619879 48.960175
11.299321 13.677572 49.475517
11.83463 13.916495 50.88633
11.148834 13.960807 51.52189
11.002655 15.023145 54.571083
13.321274 -0.795892 69.06125
13.159942 -0.8783306 69.55849
13.136695 -0.83831024 70.43498
13.068863 -0.20061791 68.82599
12.8344555 -0.3102805 69.57628
12.876441 -0.43682015 70.37641
13.182021 -0.47786534 71.14883
12.910697 0.9374926 68.011116
12.609197 0.7480264 68.58184
12.578194 0.35997713 69.41451
12.59447 0.3834015 70.37155
13.293958 0.85942364 72.310455
12.372971 2.2838564 50.06433
12.464359 2.1538403 50.55461
12.487264 2.2000892 51.205917
12.776443 1.5995784 67.98705
12.464489 1.5303776 68.34177
12.644914 1.3225982 71.22591
12.932188 1.5820637 72.225334
13.176098 1.9704877 72.767456
12.401541 3.0593667 49.288654
12.579894 2.6102479 49.709423
12.851388 2.7376626 52.188046
12.679684 3.2158027 52.619267
12.665506 2.095673 68.12213
12.489149 2.565776 68.53356
12.93697 2.2965305 72.450134
13.010633 2.8778617 72.95708
12.209434 3.9945445 48.840855
12.854603 3.6389031 52.898193
12.604327 3.2155268 68.94347
12.593446 3.3825715 69.31265
12.48808 3.235233 72.30582
13.002801 3.4438834 73.03916
13.006223 5.212981 47.60695
12.357616 4.469769 48.666203
12.650911 4.5925713 53.103848
12.627078 3.9935815 69.75417
12.552363 4.2477226 70.338844
12.543381 4.5258274 71.41671
12.729547 4.338426 72.40081
13.076602 4.18788 72.9664
12.764182 5.7814474 46.981808
12.625687 5.4962883 53.230526
13.205958 5.510992 53.778805
12.758503 5.33486 70.712715
12.674622 5.1427665 71.63248
13.194637 5.228161 72.65638
13.203091 5.489179 72.76974
12.997634 7.224727 45.0527
12.61738 6.8230677 45.774433
12.549634 6.385056 46.410236
12.836895 6.0607915 53.52856
13.251277 6.5829253 53.685913
13.030238 6.047106 70.104515
12.988346 6.09557 70.5149
12.941991 6.2492375 71.39786
13.156656 6.4540215 72.06683
12.642571 7.9950795 44.325897
12.545834 7.717031 44.603695
12.579603 7.8106637 53.042442
13.397571 8.008419 61.97989
13.333338 8.118414 62.18437
13.456807 8.130724 63.119034
13.348055 7.095576 71.68358
12.632112 8.547639 44.155437
12.727003 8.765969 52.60284
13.381353 8.714478 61.632877
13.239148 8.74238 62.42127
13.228739 9.05943 63.582817
12.110828 9.349625 43.90386
13.075857 9.927907 53.310593
12.921959 10.104409 54.159058
12.754762 10.266102 55.89235
13.050732 10.169552 56.145626
12.885391 10.212181 57.50013
13.018094 10.2897215 58.257755
13.129861 9.568067 61.915703
13.12275 9.4544 62.30235
12.897172 9.565041 63.06077
12.9968815 9.510979 64.86856
12.552708 10.104623 65.68614
12.793899 9.959329 66.43796
12.274774 10.601065 43.88069
12.559466 10.490787 54.934067
12.90659 10.504323 58.544296
13.225113 10.773621 59.29303
13.344423 10.531774 60.823997
12.8767395 10.859182 62.025085
12.808925 10.325696 62.55679
[...]
POINT_DATA 6934
SCALARS features_00 float 1
LOOKUP_TABLE default
0.56763566 0.5818207 0.53965855 0.5107701 0.58120435 0.5957298 0.6350666 0.5951864 0.54555714 0.5758741 0.5827835 0.60395515 0.5993314 0.56694674 0.55765355 0.55377376 0.51673055 0.45516866 0.44929764 0.4129359 0.46229738 0.53073364 0.53899944 0.5396951 0.47927183 0.47914916 0.4517693 0.5633001 0.5712408 0.5014393 0.47283107 0.49559012 0.5512099 0.5640204 0.5643692 0.53814155 0.5061335 0.50178385 0.54004705 0.54820734 0.50769985 0.51549965 0.53047717 0.4916966 0.473181 0.51063883 0.32963485 0.34857005 0.37685668 0.3699513 0.38310564 0.42034793 0.4784866 0.45027977 0.490153 0.50956106 0.50702435 0.51101017 0.53660595 0.4865876 0.50766355 0.5201484 0.48180455 0.4789623 0.43456435 0.46494377 0.5088965 0.5526209 0.54469585 0.48206943 0.5296073 0.558666 0.5606049 0.6816347 0.6748414 0.6255263 0.62861 0.6356938 0.5671749 0.5217406 0.4899726 0.48757294 0.36549923 0.42081773 0.36983544 0.12303926 0.30207124 0.23316318 0.5845971 0.52865225 0.26407522 -0.006030362 0.015840963 0.62621105 0.58531785 0.38980663 0.20906977 0.27953315 0.41847318 0.4596117 0.64925075 0.6068033 0.5345341 0.48345363 0.50806004 0.675322 0.6002041 0.49185926 0.29576254 0.43490356 0.2778772 0.39596304 0.41797373 0.37079367 0.4311695 0.53507406 0.4842019 0.44169673 0.53521615 0.5601782 0.5523133 0.5215214 0.72658676 0.73492426 0.7105479 0.6478153 0.698082 0.70472836 0.6405844 0.58598614 0.5951925 0.44240373 0.37089145 0.43565875 0.34955072 0.15125045 0.28367203 0.33245718 0.29370785 0.51652044 0.3086912 0.18552053 0.21963495 0.5896306 0.5673008 0.34509462 0.62080586 0.6100043 0.31524074 0.40012217 0.6835715 0.33706278 0.479288 0.7332064 0.7056038 0.40199143 0.7401757 0.69571054 0.63133013 0.3545516 0.34425896 0.2529719 0.2143257 0.20440334 0.36667812 0.30369335 0.19115713 0.18977654 0.3180171 0.42351398 0.45302403 0.49699694 0.5531291 0.53908086 0.48957548 0.55041385 0.5461594 0.54407036 0.521521 0.74103296 0.75218904 0.74923813 0.52813876 0.5067986 0.48123276 0.47519934 0.6753102 0.72640663 0.7469232 0.7240815 0.6774039 0.48221162 0.47324142 0.4730879 0.4898721 0.552595 0.5825809 0.45741075 0.40953982 0.41204026 0.45047045 0.4800493 0.2156745 0.37905443 0.32032228 0.43016207 0.18947954 0.12498208 0.28331894 0.27905428 0.40457666 0.2673524 0.24571425 0.49668533 0.5343038 0.5266918 0.15864913 0.6007642 0.259088 0.7047908 0.16915683 0.015358642 0.4099568 0.44584227 0.38010195 0.35921064 0.42055517 0.51823056 0.7513846 0.27731252 0.41682488 0.38140833 0.3195595 0.4368484 0.5146335 0.7467949 0.7253901 0.23297225 0.09153223 0.1414594 0.31798512 0.28453058 0.37623054 0.4691075 0.6828539 0.62708956 0.10210661 0.19411969 0.13084836 0.11771768 0.042311326 0.13838686 0.47336468 0.62344646 0.65484005 0.6915134 0.5929396 0.62238073 0.66072536 0.659771 0.5573235 0.556919 0.5713576 0.56795794 0.47460622 0.73011446 0.7501012 0.75262237 0.5384874 0.53508496 0.50080997 0.4788751 0.47844422 0.6116688 0.68013847 0.66428363 0.5644367 0.5008714 0.45392996 0.4936115 0.4987802 0.42537817 0.48156703 0.37876916 0.36654085 0.49592936 0.49173498 0.11183997 0.2970555 0.36417657 0.3077614 0.33077168 0.41940314 0.47169 0.46901444 0.16418979 0.29461905 0.3183552 0.32077974 0.41442943 0.43575972 0.42674452 0.41954228 0.33907107 0.25384974 0.26336494 0.2344482 0.24297881 0.28787702 0.3564014 0.3740434 0.4830197 0.46497095 0.12043922 0.07890548 0.077370435 0.029164098 0.3282838 0.5012434 -0.0909806 0.10651244 0.10082023 0.10414362 0.554759 -0.40775794 -0.21295509 0.026071005 0.07633668 0.34700584 0.33925852 0.14153366 0.13595055 0.15161763 0.2302669 0.3862902 0.43440148 0.6869645 -0.14383516 0.33624536 0.1334376 0.11777681 0.1856999 0.18388243 0.21078357 0.29324046 0.47602117 0.5291871 0.7016587 0.3499079 0.32025844 0.106486104 0.18116453 0.20510569 0.22659186 0.5455142 0.71682787 0.68345326 0.016801648 0.32209972 0.15605588 0.18807966 0.2745477 0.46736974 0.53009135 0.510704 0.6661835 0.5669849 0.4781161 0.026992273 0.19212556 0.13502578 0.14881875 0.22618839 0.3732037 0.42554086 0.43070993 0.46916562 0.0014621634 -0.027334608 0.08801921 0.17439154 0.17279455 0.35660627 -0.074970074 0.51274323 0.412809 0.38009596 0.53198946 0.4944965 0.37584665 0.42264724 0.35549146 0.37921125 0.42802197 0.47322994 0.49607527 0.36919674 0.40214568 0.44297403 0.48563942 0.38819653 0.40663218 0.42849413 0.6497332 0.6071759 0.6490921 0.6864488 0.67827785 0.63650596 0.5306784 0.5809479 0.53044295 0.5567382 0.47682804 0.44657007 0.720814 0.72503424 0.70869076 0.52814156 0.44568598 0.6850802 0.60042036 0.5299268 0.47205028 0.44381186 0.34110194 0.44681734 0.33220428 0.33795792 0.46517473 0.4383797 0.16841756 0.17604451 0.18061355 0.35692325 0.34266657 0.29685742 0.29363418 0.27613914 0.31926018 0.3162599 0.11624615 0.2174331 0.16022328 0.4267922 0.1989508 0.30715048 0.27888185 0.2702469 0.24291113 0.17304541 0.12445249 0.27851444 0.02231244 0.0003037285 0.41881636 0.2914795 0.26020324 0.21001136 0.18028261 0.029237015 0.114879206 0.16122894 0.06875851 -0.052410938 0.19303793 0.4047181 0.47299457 0.45536566 0.14173268 0.119320095 0.19852224 0.08471609 0.023719054 0.015378609 0.02654214 -0.059282564 -0.023126556 0.20522133 0.27454147 0.29415026 0.36560845 0.3956071 0.4614101 0.00837443 0.1769169 -0.07707858 0.18333413 0.21917456 0.30777454 0.40720302 0.47677293 -0.10154123 0.3223648 0.1064932 0.32768175 0.5635841 -0.002543211 0.4491023 0.4172364 0.5928285 0.53871256 0.18751737 0.052581318 0.49683273 0.46612546 0.6804742 0.664361 0.63056743 0.5764903 0.39418045 0.0025606137 0.11691375 0.10212101 0.4147811 -0.09772307 0.08265819 0.13690802 0.0102811735 0.38979042 0.40563738 0.055436768 -0.0071441727 0.16412973 0.1509204 0.16802643 0.28845495 0.30711138 0.36581433 -0.105079904 -0.11899751 0.15842387 0.18618134 0.18884447 0.17208955 0.16504672 0.4385091 0.46991903 0.4753551 0.49188942 -0.034421097 -0.00081032515 0.16591933 0.18299946 0.16045375 0.109672606 0.4126601 0.45853522 0.5028511 0.5179779 0.53298575 0.28310955 0.08035876 0.23128855 0.29363787 0.41884267 0.45640594 0.4903947 0.5242429 0.51944685 0.46678728 0.15244092 0.10126722 0.10377442 0.16705891 0.31192186 0.3831709 0.17227131 0.22044215 0.29598212 0.35166317 0.37415612 0.45212564 0.42389247 0.20543031 0.28201115 0.34320876 0.48869944 0.48116747 0.3253404 0.24239457 0.33515096 0.5030414 0.50933933 0.50016993 0.4023497 0.366019 0.35933495 0.38310608 0.4083513 0.41992632 0.4974744 0.5033218 0.45055366 0.4591202 0.44897068 0.40507007 0.4123073 0.53004265 0.52477634 0.49727476 0.610309 0.6425313 0.52851224 0.5768755 0.6459769 0.641474 0.6248441 0.49190032 0.52536166 0.4217982 0.2709607 0.40824124 0.62468123 0.6085981 0.6112331 0.5172578 0.3591507 0.34708634 0.33146948 0.3365808 0.41293597 0.41175294 0.37027818 0.340549 0.31915835 0.34376103 0.3377186 0.32220525 0.26820976 0.2779758 0.33986115 0.336012 0.024267524 0.42436403 0.3696425 0.17567194 0.050704993 0.07518669 0.28699642 0.2565573 0.32217088 0.3072011 0.2461692 0.28402883 0.23586348 0.2606218 0.27820873 0.27546638 0.3268546 0.2415413 0.15377367 0.1562104 0.23981345 0.3178485 0.24270378 0.41439348 0.15977308 0.36116427 0.43186277 0.4039432 -0.1846221 -0.16338019 0.05236832 0.020358361 0.42437798 0.38432628 -0.2164664 -0.24979575 -0.106176764 0.07791053 -0.013581097 0.022650793 0.19259225 0.1735346 0.43283632 0.35082296 0.6112375 0.6775215 0.6985998 0.43710035 0.12720877 0.35449553 0.5091611 0.65825987 0.7052994 0.77967006 0.5167863 0.5028713 0.38780427 0.25666952 0.5254899 0.6398704 0.7322822 0.7842191 0.37130612 0.35671222 0.54097253 0.6395134 0.7001405 0.7654363 0.012836687 -0.22520833 0.2472172 0.37613255 0.43776983 0.47106776 0.63306415 0.20877984 0.014297614 0.14949402 0.26330942 0.36395556 0.42955747 0.46978778 0.50236183 0.48273268 0.42563784 0.064572036 0.079632655 0.10758386 0.10910734 -0.04393954 0.5055586 0.46827704 0.45190558 0.487638 0.10091172 -0.062000133 -0.06372144 0.10201664 0.0732249 -0.22892156 -0.068977 0.24916159 0.40824097 0.47377127 0.4936074 0.46776825 0.07565538 0.09513824 -0.03465333 0.13908401 0.15139338 0.035958864 0.1695617 0.29749462 0.28221554 0.029124916 0.09942625 0.09383945 0.07049678 0.028456505 0.072567225 0.11748752 0.17167825 0.1580273 0.38962984 0.2706606 0.1728729 0.13239062 0.093104005 0.059866466 0.14728117 0.16701888 0.41877484 0.36238712 0.39739203 0.35176903 0.32138973 0.2561617 0.21385238 0.09588578 0.13358484 0.19576278 0.47473994 0.4025815 0.44143116 0.41441047 0.3680757 0.3138743 0.24886188 0.27942878 0.48685682 0.47145176 0.39271837 0.43022755 0.4213182 0.3929488 0.34684804 0.3872518 0.41724604 0.37029636 0.402714 0.4165303 0.3994271 0.43495947 0.49900305 0.514281 0.44159675 0.4747274 0.50721824 0.5656196 0.53736925 0.339625 0.26397127 0.44299912 0.5308231 0.47097605 0.4380309 0.37984017 0.3869775 0.35051757 0.5025295 0.53631663 0.38931477 0.404301 0.4157767 0.35173124 0.28168616 0.32203513 0.2109217 0.33415067 0.36610925 0.36954063 0.21501487 0.13713825 0.042741448 0.005337057 0.120113716 0.292028 0.20211428 0.22744569 0.1097963 0.10094709 0.11610162 0.22005412 -0.02175434 -0.059705377 0.032538254 0.18824333 -0.2934581 -0.1647372 -0.11030144 0.1662839 0.33035535 -0.14336266 0.2166692 0.30023438 0.24101797 0.49339616 0.15031038 0.25734186 0.080101594 0.12380342 0.5843301 0.7418909 0.8329698 0.011656966 0.31252164 0.094834775 0.8216418 0.8555716 0.20328374 0.34449023 0.14300033 0.82723665 0.85201645 0.24667042 0.24001913 0.3621483 0.3724196 0.16296943 0.27249673 0.6935569 0.73156464 0.8110062 0.13886651 0.18027598 0.27628246 0.3166097 0.40355638 0.2928455 0.3456517 0.5604073 0.596434 0.63201886 0.22571173 0.44234544 0.4069878 0.36833596 0.3091237 0.31636906 0.4313293 0.40270618 -0.08415305 0.20941456 0.24325131 0.3431102 0.010235414 -0.15251261 0.1723874 -0.014126884 -0.21732734 -0.0032630805 0.31901684 0.27472413 0.13854235 0.0664182 0.41345716 0.42917508 0.31465155 0.14905152 0.12789991 0.1786423 0.39333498 0.40865058 0.43201375 0.41287106 0.3749245 0.27696604 0.3584432 0.3579913 0.3427047 0.24054521 0.09990846 0.27884322 0.24645187 0.31993032 0.41430923 0.42414808 0.43908757 0.38054773 0.2676536 0.32472652 0.369297 0.38717803 0.36485565 0.3330634 0.34432247 0.5127424 0.50641966 0.47180134 0.36928278 0.3235185 0.30555147 0.2780463 0.31965634 0.36931145 0.5361135 0.6929297 0.6444366 0.49463904 0.36843956 0.31172144 0.29890308 0.56985754 0.5338204 0.4972549 0.75747156 0.6977306 0.5514618 0.36975488 0.27901578 0.51390386 0.58909035 0.66886055 0.8087903 0.34191337 0.37702537 0.5481354 0.6128521 0.84177315 0.84756064 0.8293201 0.6829787 0.45261613 0.5249716 0.6146818 0.8427367 0.83727103 0.81519127 0.6172674 0.5215966 0.62446105 0.6264378 0.8230597 0.8132961 0.79467547 0.7465005 0.6096419 0.63117456 0.67665184 0.77739674 0.77258277 0.6823944 0.4732765 0.4325795 0.50104684 0.48951438 0.40393215 0.3101149 0.4959269 0.2550003 0.39530468 -0.050596148 0.43047202 0.4238971 0.4171226 0.36678758 0.39946663 0.40466583 0.41179073 0.27361262 0.20743066 0.023901388 0.1817043 -0.08703601 0.17440948 0.08001472 0.1459119 0.083827406 0.02082788 0.011973925 0.08595899 -0.12726945 0.22959393 -0.01346878 0.311617 0.05570644 -0.16053012 0.52061266 0.49538553 -0.3137763 -0.17685728 0.14457807 0.20523866 0.54708517 0.16526231 0.48226026 0.16153693 0.39011356 0.31542248 0.6246218 0.079100996 0.028388359 -0.0074293613 0.6900891 0.8014727 0.16241911 0.24602494 0.017243475 0.842808 0.8450586 0.23070645 0.28132558 0.024495665 0.83313036 0.83602077 0.28631318 -0.19389635 0.6734561 0.7871302 0.24138911 0.16777062 0.42058718 0.5440128 0.61064875 0.29148966 0.118590355 0.33309948 0.4661334 0.296147 0.26556033 0.29243964 0.25119653 0.294277 0.22092596 -0.024088837 -0.050392374 0.20029435 0.22118239 0.04988098 -0.24346547 0.26480067 0.26845074 0.36292052 0.3930391 0.1392438 -0.026254196 -0.14115241 -0.129191 0.31608468 0.34457654 0.41886133 0.4307741 0.40839756 0.26205963 0.24753878 0.003737473 -0.057318773 0.062340375 0.37130037 0.3269927 0.36469117 0.4068811 0.34547174 0.27625266 0.042078204 0.024470728 0.08515469 0.09115651 0.25831342 0.32552183 0.35003904 0.38070592 0.30830812 0.24897292 0.2607597 0.2571922 0.23678845 0.03282099 -0.029502809 0.25507686 0.54946685 0.48693728 0.30726343 0.31269383 0.3036165 0.25419307 0.261964 0.25414494 0.26346898 0.026845172 0.000121284276 0.11330674 0.37632886 0.66930294 0.29609627 0.29925555 0.29435408 0.28124648 0.27404302 0.023543008 0.1477899 0.75518066 0.76769066 0.29000607 0.29237312 0.28982928 0.38895866 -0.004805194 0.005160529 0.13079704 0.09619243 0.14528051 0.6368061 0.6645542 0.7477181 0.75222206 0.6902312 0.5503505 0.38368365 0.29956895 0.32698518 0.7403588 0.7671287 0.589676 0.21104634 0.02868034 0.07060581 0.12857603 0.17558226 0.23416 0.6729511 0.5200279 0.47327414 0.43322855 0.81337523 0.45924214 0.26429516 0.0467425 0.15183526 0.231872 0.7037743 0.6012807 0.5305159 0.8222959 0.5185083 0.44040024 0.15071167 0.412472 0.7008556 0.7698306 0.78305364 0.78257596 0.6266103 0.5127957 0.6366561 0.6052985 0.71755105 0.7451498 0.8079629 0.72645843 0.7489294 0.73638946 0.67761385 0.6789139 0.7402267 0.8239724 0.83988005 0.5101961 0.48134333 0.43966544 0.398246 0.69244576 0.48662847 0.5084233 0.3497148 0.5156138 0.7260541 0.73099726 0.73219407 0.4213575 0.2504915 0.46634716 0.38765317 0.45431176 0.6859554 0.7495433 0.7903788 0.27070343 0.31025645 0.7326414 0.803172 0.4432909 0.43912998 0.42343614 0.3736362 0.08288224 0.68511856 0.7381729 0.1450809 0.13106479 0.067631565 0.0016756902 0.44293165 0.30437604 0.21166866 0.5702216 0.07988255 0.109371774 0.07361452 0.00091303885 0.09281048 -0.10914778 -0.12660147 0.27824515 0.36442772 -0.35773444 -0.0898197 0.54823744 0.53982115 0.26268905 0.6018885 0.24473362 0.24773075 0.5806669 0.26116842 0.47876722 0.4113077 0.23953602 0.1553735 -0.44696024 -0.25997376 0.6433163 0.7588751 0.18361153 0.21881518 -0.38225827 0.7863842 0.8200923 0.2588658 0.2684057 0.26948446 -0.20616549 0.78231007 0.8214621 0.30668372 0.29248428 0.6555876 0.7482983 0.21661724 0.467198 0.5340658 0.31196758 0.30249435 0.2216495 0.40744293 0.30122933 0.28964168 0.19351275 0.25815102 0.06344933 0.3032511 0.30754277 -0.03285978 -0.050580166 0.31635442 0.33068785 0.3502962 0.35841107 -0.022812685 -0.21829206 0.33999467 0.31387293 0.25908142 0.33434308 0.3403737 0.39623713 0.37436777 0.2346192 0.34166557 0.14169082 0.36417988 0.3761881 0.326163 0.2686252 0.19700098 0.17496186 0.27094015 0.33530527 0.4394943 0.32174578 0.13144615 0.19431059 0.24998184 -0.36475244 0.119457975 0.25040567 0.27225578 0.29180735 0.28180322 -0.11747956 -0.27305925 -0.4551947 -0.20596668 0.16889884 0.6391929 0.1756343 0.12598017 0.2588545 0.2839948 0.16142815 0.18591957 -0.019468918 -0.05062498 -0.09962881 0.707541 0.25433582 0.23300448 0.2762873 0.22765927 0.58828354 0.7170917 0.6917473 0.6643009 0.47697663 0.44415408 0.67891264 0.6509463 0.6429114 0.54976416 0.39031672 0.33573642 0.7102375 0.12596132 0.07843861 0.6822894 0.59950215 0.64326936 0.6442425 0.5736392 0.42941368 0.3695912 0.7668637 0.16344717 0.15389714 0.19338006 0.36656862 0.715724 0.7305696 0.6680859 0.72394884 0.63320136 0.2726473 0.41360134 0.31329978 0.54081684 0.80505496 0.7604367 0.68026555 0.6421968 0.6124017 0.5506336 0.45894316 0.7715461 0.7992227 0.85140014 0.84343773 0.6208185 0.59185934 0.5485267 0.8112953 0.8280801 0.5171957 0.4906704 0.37752554 0.75733924 0.7853921 0.75929797 0.4896779 0.31666443 0.6217185 0.7451532 0.77005196 0.33808237 0.8070263 0.82396054 0.062352333 0.0685352 0.03085443 0.39019573 0.38293272 0.37614524 0.32890323 0.011060838 0.7199633 0.077364646 0.021008331 0.3686251 0.28204137 -0.656793 0.57518923 0.6426611 -0.095005035 0.44913214 0.5726732 -0.028827678 -0.15838438 0.19774091 0.09151591 -0.28318122 0.5479574 0.41734847 0.36447978 0.6180035 0.6330476 0.3259874 0.32786292 0.61448574 0.5995014 0.33256978 0.52804023 0.49767345 0.29261684 0.36061454 0.29828012 0.08231026 0.48948976 0.7153964 0.14206487 0.117812574 0.07814769 -0.83564705 0.6334322 0.7164591 0.2398441 0.16442147 0.14782439 -0.07911873 0.65083694 0.71352863 -0.09788889 0.55325997 0.15086329 -0.0070538 0.40980905 0.45711687 0.18183246 0.29564226 0.34434646 0.38040906 0.07753609 0.1762583 0.27050614 0.092153445 0.31140265 0.32155246 0.061772868 0.34692234 0.3431527 0.42505497 0.36245716 0.25333264 0.21881375 0.30302942 0.32133204 0.30748445 0.029282324 0.035543256 0.35639486 0.50930995 0.44541132 0.28685603 0.17525049 0.16609854 0.3842674 0.37149054 0.52944434 0.43252057 0.25283623 0.2866206 -0.014869047 0.31983292 0.37035835 0.38585216 0.5633315 0.5073297 0.10498105 0.064925194 0.30141106 0.33591828 0.54167986 0.51095057 0.087168366 0.07264425 0.16691174 0.12655452 0.5232539 0.42555904 -0.21669808 0.016313195 0.08611977 0.002046615 0.29176953 0.022064433 0.16824393 0.58593476 0.47024754 0.10117955 0.023263648 0.14406693 0.21819553 0.23980328 0.2172893 0.44515312 0.58160394 0.45902085 0.19524238 0.5185611 0.52776146 0.42192137 0.24994105 0.14854884 0.6146842 0.505324 0.6130019 0.6211139 0.23495933 0.4061368 0.09256639 0.6908251 0.70235807 0.63290644 0.67201614 0.6371621 0.28798765 0.47822335 0.33867404 0.2418083 0.4119035 0.77166903 0.56850123 0.56977683 0.4611625 0.42817438 0.37665215 0.46280527 0.6767235 0.8057819 0.8069018 0.5526674 0.5721437 0.53691256 0.50090456 0.7576363 0.7865088 0.4184243 0.30600482 0.32892296 0.73963356 0.8269611 0.7790726 0.75824785 0.4271182 0.42660114 0.23298436 0.32828766 0.38658464 0.43096727 0.1833441 0.7036345 0.74619424 0.7740603 0.37616563 0.352674 0.2576224 0.18563467 0.18083309 0.2181862 0.3091059 0.38568977 0.06366286 -0.015822917 0.80067056 0.2774924 0.20504664 0.14937852 0.12929717 0.11433912 0.10910336 0.044588342 0.16633826 -0.023524743 0.053039506 0.82221 0.21070468 0.18367933 0.13558555 0.058629677 0.04873434 -0.0021562055 0.24191092 0.3097735 0.2520709 0.75691605 0.09836787 -0.040433332 -0.031186663 0.09566072 0.17322756 0.61849535 -0.1419998 0.4776613 0.5892024 0.5944371 0.46509677 -0.11125581 0.27830592 0.5477589 0.40459877 0.0045882314 0.37070134 0.4042747 0.608237 0.49784952 0.4356982 0.4007252 0.6354882 0.4054423 0.38024312 -0.11395132 0.29134136 0.31975493 0.20730889 0.024464956 -0.15740266 0.059323326 0.18233487 -0.0077128373 0.060902026 0.16785324 -0.0016187634 -0.4254672 0.34816426 -0.56178564 0.35794884 0.32613328 0.3636166 -0.105345 0.2684831 0.31589693 -0.15099639 0.17826897 0.21821035 0.09448748 0.10381784 0.27335066 0.29452297 0.31088227 0.32641208 0.32171392 0.30220857 0.09100427 0.34060952 0.49857056 0.46080077 0.38072968 0.25193983 0.321464 0.2664684 0.065748796 -0.2510452 -0.24827257 0.3841447 0.36498162 0.53482723 0.5284157 -0.3107676 -0.19785425 0.4165861 0.4003687 0.5622592 0.5425702 0.3853016 0.39616558 0.5926134 0.091664374 0.18173811 0.57957095 0.16768801 0.55051607 0.48135144 0.06762945 0.3249669 -0.040761918 0.19450614 0.17502224 0.12932111 0.29035163 0.09889056 0.13176487 0.20355037 0.408324 0.060870156 0.044384703 0.5205163 0.48770028 0.44014764 0.3365475 0.3235677 0.079671875 0.6182217 0.59678996 0.545288 0.23539224 0.29063943 0.3940004 0.24028221 0.1310815 0.26911598 0.330657 0.6756827 0.7085639 0.14444937 0.2643468 0.29784456 0.44060135 0.44396886 0.45514655 0.45585677 0.41069394 0.5454955 0.6847128 0.750065 0.77193934 0.5318394 0.55417037 0.5558294 0.52516675 0.5065655 0.70987654 0.664395 0.65577316 0.62883437 0.46457213 0.4236613 0.34731102 0.2522055 0.64452696 0.64254785 0.6143855 0.5066876 0.109011635 0.2190808 0.3249117 0.42965442 0.4751442 0.49129862 0.38943475 0.38940507 0.05161439 0.7828426 0.77166796 0.6205609 0.5657694 0.46439898 0.44553688 0.31945238 0.12190432 0.11801723 0.21342883 0.29178745 0.44275832 0.46925288 0.46795213 0.27041224 0.43608606 0.7199989 0.745335 0.73551863 0.5464436 0.46287543 0.41188446 0.3146374 0.38601485 0.177149 0.14423233 0.4632641 0.6997067 0.758193 0.41647857 0.29669124 0.21578549 0.22858919 0.114753924 0.06401302 0.71313643 0.24852496 0.15960309 -0.09756085 -0.042737745 0.5928167 0.666774 0.105057105 0.13574731 0.55639577 0.61