# vtk DataFile Version 2.0
Really cool data
ASCII
DATASET POLYDATA
POINTS 839 float
16.222637 6.970234 51.876
16.286863 6.853 52.581078
16.313265 6.922797 53.02281
16.246996 7.547642 51.68273
16.078094 7.6802654 52.550205
16.235666 7.634336 53.33805
16.277575 8.061229 51.733433
16.18638 8.231485 52.47067
16.28498 8.216717 53.24589
16.989582 6.000594 51.75637
16.706993 6.246412 52.37341
17.162783 5.949314 53.341194
17.30165 6.1156874 53.784477
16.697023 6.5321774 51.489693
16.442003 6.5695786 52.21681
16.644337 6.80806 53.49692
16.835188 7.1093183 53.864037
16.82011 7.592498 51.05075
16.426193 7.5811787 51.405468
16.716177 7.565385 53.990334
17.034243 8.408511 51.235382
16.640089 8.453874 51.57576
16.428623 8.649506 52.778862
16.455849 8.5683155 53.227768
16.822472 8.206641 54.002445
16.987219 8.973124 51.766224
16.787167 8.990442 52.46097
16.538195 8.843614 53.084663
16.9576 8.765288 53.814594
18.067036 5.114995 51.311832
18.076933 5.141256 53.336884
18.07019 5.7967606 50.098022
17.820213 5.6235995 50.530212
17.490871 5.456621 52.802162
17.589659 5.7435613 53.61248
17.740719 5.7816176 53.790714
17.797419 6.164972 50.133976
17.558388 6.374738 54.07981
17.641882 7.5429535 54.37929
17.650087 8.428352 50.97271
17.300322 8.378376 54.198887
17.655094 8.974556 51.325203
17.586184 9.159094 51.59337
17.189474 9.057221 53.48095
17.228928 8.905069 53.72961
19.359064 4.074197 49.703568
19.148018 4.064424 51.89289
18.382244 4.6254315 51.30463
18.74287 4.531241 52.374157
18.263079 5.094545 53.47332
18.475866 5.3137503 53.760704
18.589407 5.521103 49.68111
18.471025 5.6288705 54.033577
18.783308 6.189149 49.484833
18.553991 6.4017906 54.386734
18.597198 7.5924406 50.062035
18.963488 7.768164 50.123905
18.644888 8.327753 50.61459
18.467182 9.268372 53.18038
18.326498 8.936474 53.934353
19.431944 11.385601 53.55712
19.451342 12.146135 53.776325
20.11939 3.2644475 49.687183
20.1661 3.7794025 48.607433
19.651033 3.819482 49.63839
19.71893 3.573923 51.477367
20.025925 3.6087599 52.12515
19.855492 4.7687626 48.562275
19.508831 4.7898 53.409664
19.437355 5.56307 53.872585
20.032969 6.310253 48.956882
19.28117 6.3990355 54.370792
19.65283 7.1649284 49.519535
19.408298 7.8737836 54.272736
20.032787 10.008979 54.89378
19.778885 10.765319 55.003166
19.960941 11.556735 52.457428
20.023628 11.802653 55.066677
20.18919 11.289267 55.788048
19.628529 12.653954 54.211296
20.09636 12.228068 55.227776
20.285248 13.842682 52.72659
19.756428 13.325779 53.82897
19.88631 13.161015 54.362354
20.339226 13.639558 54.866264
20.22502 14.198334 53.067406
20.278008 14.3425665 53.528816
20.245377 14.117712 54.224724
21.426565 0.59349096 43.92483
21.472212 0.94478536 44.327686
21.384943 1.163859 43.82577
21.179815 2.3427303 47.883663
21.002584 2.5777574 47.726532
20.609388 2.8088045 49.53747
20.620552 2.910985 50.819153
20.62702 3.4782794 47.743736
20.521109 5.1354833 48.170334
20.932682 5.9655848 48.468384
20.1847 7.601566 49.785583
20.70164 9.344191 56.241714
21.10319 9.802841 56.819942
20.97059 10.261259 56.842144
20.63595 11.471257 56.251133
21.125893 11.229147 56.65281
21.290056 12.175124 50.466232
20.943453 13.737401 52.145096
20.745188 13.342209 55.561024
20.555574 14.332208 52.751537
20.409763 14.53268 53.587715
20.567177 14.393393 54.48634
20.8976 14.043201 55.229294
20.644098 14.738773 53.432575
20.984028 14.816316 54.309673
22.032667 -0.021742582 43.05051
21.905893 -0.26104575 43.76023
22.041689 -0.327486 44.53451
22.210842 -0.2419414 45.179832
21.945726 0.5664968 42.85635
21.572052 0.68171185 43.53964
21.555614 0.51201427 44.442326
21.98853 1.3940558 42.7693
21.604795 1.3504755 43.5242
21.513784 1.6688738 44.07849
21.733894 1.68448 44.976963
21.934856 1.8500644 47.78843
21.514605 2.1292396 48.46074
21.689482 1.8349164 43.545372
22.084738 2.4385595 44.37483
21.775902 2.7591078 52.18364
22.188005 2.983498 44.330086
21.789558 3.4140806 46.51854
22.236158 4.828118 46.967625
21.261003 5.430252 48.055286
22.23429 5.7701907 54.219837
21.939636 7.362335 48.896034
22.244371 7.3161817 55.27274
21.239853 9.215594 56.720543
21.590082 9.688775 49.97719
21.616486 9.795048 57.11885
21.568195 10.38081 57.1364
22.312939 11.277494 49.155582
21.7792 11.957556 49.522484
21.715631 11.414835 56.895844
22.005617 12.608219 49.28845
21.54167 12.44588 49.96539
21.949572 12.15414 56.82
21.985355 13.256361 49.631634
21.371801 13.599637 51.584816
21.675753 13.4606 56.10926
22.297739 13.891709 49.501637
21.954763 14.1655 51.678658
21.433498 14.44214 55.33348
21.862503 14.112208 55.906506
21.433498 14.820503 52.87253
21.273619 15.056876 53.77537
21.75763 15.201974 54.35201
21.757723 14.93467 55.046246
23.082838 -1.7251122 44.32289
22.965332 -1.3543673 43.10862
22.770552 -1.3333892 43.428677
22.678581 -1.3618448 44.429363
22.93915 -1.116413 45.681576
22.883854 -0.78732556 46.063694
23.004114 0.009213805 42.389523
22.741796 -0.24604216 42.571136
22.549492 -0.30842614 46.104763
22.907116 0.6219473 42.072983
23.102482 1.1695963 48.28041
22.684965 1.4197984 42.15606
22.375257 1.6949223 42.36908
22.987314 1.7500322 51.727158
22.680767 2.1907885 52.158344
22.843485 1.9564754 42.257847
22.680964 2.3006752 42.659813
22.764002 2.6237936 52.957024
22.89137 2.7092335 42.99683
22.4488 3.5798407 44.90677
22.856335 3.5700738 53.917057
22.553991 4.3213696 53.70607
23.072144 4.843007 56.5646
23.174892 4.9276166 57.06674
23.123526 5.0736985 46.204987
22.74295 5.430779 54.979004
22.737278 5.6261997 56.58408
23.006361 5.7381225 57.387287
23.243547 5.9492126 57.862854
22.294867 7.070044 48.852646
22.729393 9.461984 48.912933
22.677252 9.655386 57.14556
22.894274 10.311147 48.740765
22.338383 10.194925 57.277077
22.485575 11.649901 48.807976
22.4429 11.5500965 57.08838
22.75557 12.767298 48.440025
22.499565 12.313003 56.86786
22.84608 13.278123 48.32227
22.597237 13.540763 48.652
22.602734 13.324607 56.56977
23.25191 13.980489 48.198498
22.73976 14.061467 48.801815
22.744268 14.435294 49.541733
22.6013 14.55096 55.876255
22.957386 14.933208 50.091293
23.045235 14.924158 52.21763
22.623793 15.287691 53.661777
22.684765 15.329072 54.679848
22.405598 15.178987 55.010746
22.927479 14.688422 55.742115
24.389631 -4.1204805 47.924114
24.379942 -4.341802 48.445705
24.447414 -3.7903402 48.90102
23.909147 -1.7601181 43.206684
23.747375 -1.903003 43.635426
23.679583 -1.9339511 44.384087
23.480099 -1.2649528 42.810772
23.385107 -0.25669837 42.259132
23.233528 -0.76715565 42.522957
23.54236 0.57553095 42.001575
23.435692 1.4279362 41.971497
23.307457 1.8013681 50.831387
23.448524 1.7520524 52.213406
23.624771 2.0705194 52.983723
23.242325 2.1062942 42.24763
23.63219 2.3720863 42.47762
24.115309 2.9531598 54.546658
23.385677 2.9862757 43.04514
23.49091 3.5856166 43.718258
23.85566 3.817775 55.676937
23.811087 4.0459323 56.47113
23.783632 4.2047105 44.5961
23.350517 4.400862 56.56663
23.66025 4.72014 57.426712
24.009878 4.9631677 57.94627
23.483414 5.1661534 45.701668
23.669125 5.521257 58.041
24.204063 6.5168176 45.47912
23.598839 6.135376 57.988453
24.081278 7.4076023 46.664608
23.626444 7.359155 47.753986
24.13821 7.9099083 47.521694
23.70003 10.391717 48.310078
23.632175 11.710232 48.107075
23.928474 12.198883 47.952633
23.72484 12.821491 56.65826
23.493284 13.508701 47.970665
23.252892 13.189826 56.639614
23.585377 14.35042 48.24558
23.685143 14.944374 48.969196
23.075033 15.35784 54.486366
23.36433 15.109615 55.22213
24.154577 15.7667465 51.02061
24.808718 -4.84975 47.910603
24.83425 -5.0817857 48.611176
24.953339 -5.081072 49.3008
25.236696 -4.9589143 49.923035
25.068525 -4.116507 47.33341
24.78976 -4.5467243 47.658154
24.488768 -4.7290506 48.518845
24.657331 -4.5966253 49.463943
25.009546 -4.715514 49.933582
25.292217 -4.1744723 50.79694
24.514442 -3.8242018 47.745316
24.573166 -3.5293481 49.270603
25.117357 -3.4770885 50.58228
25.178736 -3.6821074 50.86887
24.471058 -1.6698833 43.104702
24.856155 -2.0135238 43.990047
24.471565 -2.0678492 46.029022
24.96543 -2.625257 50.089066
24.359516 -1.2470466 42.677956
25.0953 -1.8733503 50.263233
25.252468 -1.4851394 50.880077
24.594116 -0.46075112 42.281193
25.262793 -0.12467457 51.083965
24.336315 0.6157284 42.129105
23.99056 1.7576493 42.164146
24.399252 3.1978664 43.163097
24.338682 3.429981 55.68155
24.439009 3.704942 56.223877
24.654842 4.184062 57.229862
24.932 3.868341 44.107834
24.396738 5.048934 58.028625
24.518478 5.658557 58.286762
24.384508 6.2198706 45.15576
24.372011 6.4106903 58.147488
25.164495 7.353766 45.111366
24.866177 6.990849 45.406746
25.278704 7.9890513 45.141136
24.480137 9.459308 47.8016
24.732866 9.117075 56.94488
24.269823 13.4061775 47.88651
24.380772 14.421532 55.172924
25.44288 16.454283 41.859238
24.98429 15.6139 49.604576
24.622412 15.697943 51.667984
25.862347 -5.5491986 48.804115
25.823484 -5.5514216 49.01612
25.540646 -4.9983597 47.73513
25.444248 -5.429147 48.5768
25.558167 -5.4348025 49.366177
25.708782 -5.2995033 49.922146
25.293316 -4.1137867 47.22316
25.202448 -4.6028314 47.48307
25.85957 -4.008089 51.57233
26.133648 -3.8480265 52.11538
26.13391 -3.3406665 52.244724
25.873974 -2.0210009 43.858353
25.41027 -2.4870334 51.69318
25.072313 -1.327501 42.856663
25.631369 -1.6112049 51.6671
25.900002 -1.3951976 51.947163
24.945942 -0.37768602 42.33434
25.534794 -0.48532045 42.589382
25.876602 2.367924 52.742622
25.238008 2.8367498 54.790573
25.684587 3.103705 54.945915
25.709711 3.5844078 56.24643
25.711458 4.0990796 57.345184
25.565092 4.6356707 57.855633
25.90169 4.9212103 44.649815
25.718874 5.3158264 58.24533
25.831831 7.565857 44.82975
25.262611 7.627234 57.438046
25.55311 8.103458 44.83971
26.048927 9.070304 44.996925
25.757019 9.53401 45.651478
25.411587 9.53373 46.550148
25.747091 9.889983 46.565437
25.518618 11.470923 47.47611
26.131788 12.433365 56.742493
26.038633 14.24876 41.472084
26.008913 14.169336 42.579357
26.258785 15.032805 40.19
26.078856 14.639973 40.831055
25.77556 14.668876 41.68939
25.739592 14.489058 42.246006
26.027555 14.400987 43.124187
26.21259 15.888016 40.03911
25.825989 15.4277525 40.686115
[...]
POINT_DATA 839
SCALARS features_00 float 1
LOOKUP_TABLE default
0.771028 0.7639692 0.764509 0.8023637 0.8311434 0.82371694 0.80804884 0.83391035 0.8266197 0.6169633 0.6678523 0.5948282 0.5855895 0.67761314 0.7253175 0.7234013 0.74131024 0.6984198 0.77349305 0.7925074 0.6871299 0.76870203 0.8233835 0.8196507 0.79289186 0.73775685 0.7912657 0.807658 0.77957416 0.4963887 0.46591687 0.49666983 0.5195855 0.52636975 0.5349853 0.52246845 0.52846324 0.56653166 0.72113764 0.56995964 0.7572311 0.5748493 0.621845 0.74551505 0.7539965 0.3438471 0.36702505 0.4238288 0.44442147 0.46354532 0.46617484 0.44170597 0.46758175 0.424356 0.5037383 0.41373342 0.36738986 0.40628576 0.6568005 0.6854844 0.44562405 0.4582304 0.28504097 0.37832728 0.31955612 0.25745982 0.22685862 0.40414786 0.42694694 0.4289561 0.22388169 0.49189126 0.27210566 0.6080551 0.3503818 0.37725002 0.47986484 0.4096104 0.4080851 0.45956576 0.42410433 0.49659938 0.495253 0.48266232 0.4948243 0.52173114 0.5307962 0.5185426 0.60550475 0.56204426 0.59464514 0.28684315 0.2990354 0.2580257 0.20564096 0.35126624 0.2847523 0.101642944 0.1697695 0.3918726 0.38822246 0.39627817 0.42725694 0.42002103 0.24846305 0.42422682 0.47445244 0.50800085 0.53259635 0.5229414 0.50885046 0.527904 0.5316111 0.70918286 0.65554905 0.5796977 0.50666857 0.7184988 0.62982666 0.56623113 0.7093125 0.614071 0.55820113 0.47200978 0.19642343 0.22142448 0.6025815 0.5216249 0.19726476 0.4986571 0.22909053 0.022056602 0.10506627 0.019114899 -0.0851785 -0.0058806576 0.36120838 0.11105101 0.37435728 0.38605094 0.2401272 0.27652 0.39985734 0.32061195 0.27460027 0.3791494 0.31633726 0.31995606 0.45117122 0.35878155 0.35241005 0.51459587 0.48926133 0.5020784 0.52799857 0.5247478 0.5179939 0.5986507 0.6374343 0.6506305 0.59610164 0.44150278 0.3826303 0.6775297 0.6869532 0.34458232 0.70275444 0.03517271 0.68192387 0.6825943 0.23717052 0.2203989 0.6155942 0.5938324 0.22199844 0.53633577 0.29887846 0.26602802 0.16767085 0.4594934 0.5126295 -0.02271849 0.13793404 0.41423452 0.5269114 0.558375 -0.11745178 0.018463194 0.34119114 0.13171048 0.3624694 0.27988136 0.34890336 0.36603704 0.3634687 0.3948047 0.39722285 0.40006024 0.4359547 0.41689306 0.38643822 0.48328084 0.36068863 0.36421308 0.4778738 0.5038654 0.5084677 0.47601488 0.77070683 0.7994901 0.73141503 0.5796375 0.5924886 0.5707671 0.60526884 0.62610835 0.6244565 0.65243685 0.63490933 0.24149823 0.23315051 0.22463834 0.5732191 0.50082064 0.27392012 0.45829132 0.38847473 0.3419081 0.44074363 0.24142395 0.4627599 0.52737164 0.56182647 -0.008788116 0.5691309 0.122567855 0.5610864 0.1206595 -0.107419305 0.02989269 0.04453183 0.25273025 0.2776967 0.3133642 0.41360915 0.37224913 0.4565962 0.47104895 0.4761925 0.46851215 0.33446217 0.8020375 0.8170623 0.76308465 0.6850794 0.72379655 0.7914847 0.81573665 0.74458694 0.6908427 0.5887348 0.7138132 0.65330714 0.5414952 0.54663485 0.52024895 0.47694987 0.41293716 0.48281875 0.535583 0.4048041 0.34705663 0.53673065 0.19307855 0.58090985 0.5486547 0.30693603 0.33461896 0.39293304 0.50224406 0.16514374 0.5786054 0.5821476 0.10355643 0.54390585 0.30102262 0.21106218 0.37515718 -0.10235073 -0.0051730983 0.35909122 0.40808547 0.5905974 0.4957475 0.23067114 0.7114303 0.703701 0.7973745 0.775092 0.70895696 0.65719974 0.71134686 0.7827959 0.5281118 0.49427146 0.47570753 0.31956238 0.4714175 0.4465819 0.39588812 0.39786273 0.49605638 0.40302736 0.047185656 0.25493622 0.25628114 0.35237718 0.46473828 0.5270294 0.0546259 0.5299306 0.39696607 0.18127543 0.44807994 0.51921034 0.5142983 0.2856264 0.23563787 -0.1103351 0.37505484 0.8357951 0.7559441 0.8858601 0.8636425 0.78351873 0.7408395 0.6693486 0.81990695 0.81696117 0.73582006 0.62165725 0.5968402 0.40239236 0.29208368 0.7819528 0.73345375 0.6501995 0.51686674 0.4134044 0.24217805 0.22328576 0.5377893 0.4307478 0.37829757 0.32348394 0.48298195 0.39809456 0.3129648 0.63866174 0.6474545 0.73690736 0.6110996 0.6168207 0.61533606 0.5393038 0.5100322 0.48278666 0.47569272 0.46131802 0.29145855 0.46014068 0.3050575 0.4138868 0.2967206 0.4805578 0.4714777 0.18623742 0.25402403 0.2766695 0.35020584 0.36177325 0.35529307 0.43634474 0.4780613 0.4728722 0.4341844 0.43372098 0.20578367 0.49909574 0.3441034 0.51191133 0.47399426 0.015656987 0.0014518648 0.8566873 0.83775395 0.82485855 0.72310424 0.8904331 0.8721913 0.8155035 -0.017544277 0.20152329 0.24649668 0.28000605 0.2905788 0.7477008 0.07061118 0.26308835 0.26593226 0.64557993 0.29671204 0.23728015 0.3195271 0.51198304 0.2590327 0.46931076 0.622603 0.5277238 0.49912733 0.4335982 0.32328236 0.2639394 0.34775427 0.458165 0.6418191 0.69503653 0.32291317 0.5321306 0.64669645 0.57214385 0.56093025 0.5367756 0.5668919 0.54273355 0.44568986 0.4520676 0.2537892 0.24202493 0.43579644 0.25921437 0.39725846 0.49296468 -0.035131138 0.17768455 0.5144349 0.22044213 0.49922472 0.28075558 0.39761233 0.44238138 0.4384895 0.38662887 0.39277425 0.26510262 0.38715833 0.41931462 0.12602858 0.53996986 0.5142455 0.47222865 0.48541835 0.74949163 0.7972953 0.7642977 0.43602347 0.83371294 0.7959156 0.8055929 0.27345276 0.28053212 0.750672 0.58707345 0.3728174 0.5430343 0.6000521 0.65623474 0.65202963 0.43396175 0.3575963 0.3049284 0.41093427 0.6821424 0.67566967 0.6256965 0.56966674 0.6412417 0.6700051 0.6758993 0.4292228 0.41856217 0.35500038 0.52676034 0.5185213 0.23234543 0.21794808 0.50080293 0.21531059 0.41916507 0.3170566 0.2961083 0.5331244 0.53993416 0.16743194 0.47767496 0.4460033 0.39597514 0.25798544 0.27614748 0.30501312 0.4755251 0.2550072 0.5490062 0.034447588 0.5529556 0.5288275 0.49637884 0.510931 0.6709033 0.31948802 0.46102637 0.48175323 0.74287295 0.63198286 0.5209783 0.28182405 0.10505822 0.24490848 0.6877101 0.5721569 0.22832224 0.24749911 0.62060016 0.55391073 0.55361307 0.5344111 0.6345321 0.5742502 0.7193862 0.70468765 0.64366204 0.6169616 0.72304976 0.6930411 0.68713856 0.56627524 0.65690315 0.66088617 0.29054695 0.29771942 0.32170922 0.38686806 0.5590528 0.6006979 0.259059 0.29154205 0.5913873 0.22702071 0.56839514 0.19991606 0.21125475 0.54169023 0.19795635 0.52286726 0.23776928 0.22625339 0.38054785 0.31862652 0.48746204 0.42661119 0.5398404 0.50643224 0.49235892 0.42823213 0.45365232 0.36734825 0.17205872 0.5167245 0.5510391 0.5256186 0.53932446 -0.037759475 0.08151011 0.17582564 0.34404838 0.4750005 0.507909 0.518563 0.17628404 0.22234866 0.33763376 0.4890794 -0.15551238 0.48074245 0.45447552 0.37867606 0.32838815 0.4894719 0.15036538 0.503704 0.21910644 0.5895425 0.63492876 0.5330665 0.7218077 0.7679775 0.45639098 0.5134371 0.5908791 0.5987612 0.5661075 0.8020641 0.8077951 0.55884147 0.5658463 0.6068194 0.5723226 0.60388255 0.2917403 0.30330026 0.30581284 0.55026895 0.6152444 0.6306858 0.29590207 0.3103532 0.31829345 0.6261978 0.24456868 0.3042577 0.58702123 0.20500252 0.5516137 0.21629916 0.5215704 0.3351619 0.3023364 0.4273386 0.52757096 0.53187007 0.52935594 0.49447185 0.51755655 0.5022539 0.49660254 0.43028843 0.3864159 0.49107942 0.08061187 0.42747134 -0.09152706 0.3215739 -0.03582392 0.06678167 0.36131048 0.054131918 0.22543424 0.4017564 0.47485775 0.09504597 0.16762306 0.4369191 0.5040852 -0.055098243 0.19579327 0.28579476 -0.07696322 0.25692403 0.40975845 0.2046012 0.47738212 0.5725212 0.268501 0.2501023 0.6911769 0.70658684 0.40454608 0.72862375 0.78018427 0.33177948 0.24441941 0.48434383 0.4622076 0.83122456 0.80813026 0.6273376 0.5317003 0.56956273 0.60717165 0.507493 0.56725323 0.60783803 0.28636366 0.58229494 0.5788034 0.28356302 0.5539477 0.5709212 0.25204003 0.39728588 0.53057456 0.430769 0.4555167 0.40790737 0.3361285 0.3135553 0.25913703 0.31441504 0.3841042 0.35212907 0.4683069 0.41339004 0.37208357 0.27424434 0.50714177 0.40853733 0.3725728 0.32290918 0.3562774 0.4967143 0.52144116 0.52567315 0.41468084 0.3798982 0.50028676 0.5011742 0.19856013 0.3302626 0.46264333 0.45481774 0.29165295 0.449843 0.1663756 0.21305838 0.32984447 0.44871557 0.15590319 0.2553897 0.14422666 0.1500876 0.20331965 -0.0147474855 -0.08896455 0.40554374 0.52948195 0.22772759 0.29471174 0.5891858 0.6385021 0.47389972 0.22250581 0.26847142 0.25477773 0.7046071 0.68732977 0.40000623 0.7713882 0.74777925 0.5793452 0.50153476 0.7033866 0.65258193 0.5163278 0.54927325 0.47613716 0.52825457 0.44621456 0.4649089 0.48156387 0.41572285 0.43767393 0.46363923 0.4478594 0.40912586 0.72131944 0.68483174 0.439511 0.7404153 0.49020806 0.69009197 0.49711215 0.5111352 0.41747335 0.3413823 0.5778997 0.5385256 0.5142593 0.7498809 0.68947136 0.4896587 0.7473397 0.5071509 0.7256677 0.5389454 0.70351946 0.5470301 0.5389215 0.54477227 0.575075 0.5019308 0.53587115 0.7514165 0.70683813 0.58930993 0.52907264 0.50870925 0.7439238 0.75202215 0.5174663 0.49546576 0.73615026 0.7388284 0.5406666 0.71405673 0.7123941 0.5738169 0.561985 0.69856787 0.6850449 0.6190869 0.597177 0.5832172 0.5764569 0.5730292 0.7435391 0.73764867 0.6426934 0.52135354 0.51401365 0.7347029 0.72997755 0.7178242 0.53758156 0.5404805 0.7236048 0.71491027 0.6901201 0.56307477 0.54854196
SCALARS features_01 float 1
LOOKUP_TABLE default
0.14436154 0.14437719 0.14567572 0.15794428 0.17193426 0.169478 0.16206335 0.17345667 0.170724 0.082253635 0.1066758 0.085389204 0.0834386 0.102913134 0.12769622 0.13052031 0.13741961 0.11336935 0.14505771 0.15653476 0.11639595 0.14702667 0.16897544 0.16780381 0.15682618 0.13524096 0.15392031 0.1625106 0.15182886 0.037533462 0.048496205 0.024728427 0.038602572 0.061703686 0.06820733 0.065135136 0.040918227 0.07898894 0.12834023 0.077157244 0.14249536 0.0814804 0.09582755 0.13791431 0.14176965 -0.008058507 0.012875019 0.018711818 0.03142324 0.047762748 0.049354862 0.00064504147 0.051194243 0.0056252554 0.062403012 0.031462263 0.025035005 0.037251823 0.10325585 0.113761865 0.04439086 0.050902147 -0.0013322998 -0.0066438834 -0.0057601193 -0.00010831747 0.00048340112 -0.01809474 0.035677645 0.041746218 -0.0056774803 0.05940189 0.005541684 0.08486785 0.025312504 0.031524956 0.054260757 0.03977164 0.038322818 0.05215832 0.043388512 0.059804864 0.060194567 0.057559017 0.060646273 0.06642281 0.06904793 0.066313334 0.0910518 0.07785124 0.08690401 -3.15652e-05 -0.002711821 0.0020455862 -0.0037905686 -0.013579463 -0.02130758 -0.0070610438 0.0030670476 0.03780341 0.037560172 0.038956236 0.043162555 0.042854372 0.013675981 0.04189364 0.05537874 0.062888175 0.06966543 0.06776554 0.06438389 0.068317756 0.070116006 0.12382977 0.10650325 0.0837904 0.06395258 0.12756784 0.09818699 0.07974955 0.122352555 0.09208503 0.07439616 0.05041458 0.0005027824 -0.0012169724 0.0859337 0.056798093 0.007206216 0.04494902 -0.042545468 -0.016925914 -0.015597975 -0.0027072344 -8.8524714e-05 -0.0035201001 0.03228108 -0.0033614845 0.034905203 0.0370461 0.011465229 0.017632566 0.039096568 0.024115661 0.017112205 0.034821466 0.022570739 0.0192327 0.050236028 0.029215071 0.02129444 0.06598848 0.05969581 0.061126318 0.06890328 0.06855548 0.06682175 0.082481764 0.09808709 0.10198014 0.08424698 0.04459061 0.034398608 0.11375066 0.11614434 0.02952504 0.123190895 -0.018142166 0.115892716 0.11449312 0.011243465 0.009129795 0.09396736 0.084712125 0.0083023 0.06649086 -0.0019115047 0.0023536226 -0.005981286 0.052091483 0.06594911 -0.0024304423 0.0008054462 0.04331371 0.069585964 0.077709764 -0.0013654203 -0.0024392335 0.028781572 0.0021728831 0.032701172 0.017038872 0.029706372 0.031475876 0.03217392 0.037082892 0.03746109 0.03956808 0.045910213 0.041537207 0.034409657 0.05800411 0.024138158 0.015868416 0.05580121 0.06291298 0.064189166 0.056003243 0.14792553 0.15970892 0.13402402 0.07909736 0.08155398 0.07124019 0.08877783 0.09703071 0.095718555 0.10594545 0.100641616 0.013236443 0.011602388 0.0116371 0.081636876 0.062096205 0.0031618131 0.048686318 0.027917122 0.018569564 0.04509639 -0.0068372143 0.05199594 0.06955467 0.07892286 -0.009530373 0.0808959 -0.012141515 0.07832436 -0.0022801324 0.0024650034 -0.0009784398 -0.0031840024 0.014234077 0.018725557 0.024467705 0.041314576 0.034616757 0.05081975 0.054760363 0.05557307 0.05328165 0.02291374 0.16074069 0.16655506 0.14350103 0.11073958 0.12985104 0.15649575 0.16623391 0.13640916 0.11323062 0.07930483 0.12445618 0.106862806 0.069439046 0.0700664 0.06240946 0.048933804 0.016503006 0.05524541 0.06865613 0.03714335 0.02342994 0.07056539 -0.0114051495 0.08345812 0.07448598 0.021698529 0.019063065 0.033109896 0.061774634 -0.0011561187 0.08366197 0.08469948 -0.015150994 0.073685594 0.014214468 -0.0030894193 0.02474552 -0.021365464 -0.0026503252 0.032149296 0.037974603 0.084879115 0.05984962 0.008094847 0.12448026 0.12093526 0.15855895 0.14929023 0.12199389 0.10056904 0.12473051 0.15308283 0.06606089 0.058987312 0.054862972 0.022963226 0.052200772 0.044204157 0.034668863 0.035101507 0.059746284 0.037470914 -0.0068050288 0.011069711 0.01407259 0.028994549 0.053090412 0.069211565 -0.015848016 0.07008466 0.033140026 0.002973773 0.039060343 0.056476995 0.055612803 0.021734428 0.014450953 -0.0030791063 0.030716235 0.1637065 0.13509884 0.1903553 0.1794045 0.14863878 0.13241464 0.10781979 0.16263624 0.16495243 0.13453679 0.09655521 0.089176945 0.034800526 0.021642163 0.14824939 0.1304569 0.103015065 0.065311894 0.041489102 0.012509735 0.0105606 0.06840085 0.04421464 0.033101838 0.02021937 0.051357456 0.03673014 0.019486163 0.09861154 0.09997712 0.13553903 0.0910537 0.08764413 0.08450758 0.06589961 0.06151471 0.056025628 0.054542195 0.051074136 0.019040156 0.05027481 0.020531692 0.038069587 0.020247348 0.0486454 0.051568832 0.0073922696 0.014758432 0.01775627 0.03106701 0.031141942 0.029235044 0.04565652 0.055963315 0.05478726 0.04619907 0.029486537 -0.0029768483 0.04985057 0.027726334 0.065335944 0.05560585 0.0006591655 -0.0026381954 0.17230926 0.15735005 0.148677 0.1195292 0.19050615 0.18079723 0.15586999 -0.06681042 0.007297327 0.0141619975 0.019510936 0.021234263 0.12452315 -0.10241267 0.016736934 0.017406782 0.08653025 0.014148481 -0.008774106 0.008228732 0.04777163 -0.0056890626 0.050676044 0.08916195 0.053470496 0.056958344 0.045666616 0.023182865 0.0012743659 0.011432635 0.041301154 0.09779302 0.114526786 0.006759392 0.057886153 0.09790592 0.08136901 0.075447686 0.06587264 0.066394 0.07436633 0.04748228 0.04823937 0.015098371 0.014106919 0.04390817 0.016046267 0.034216233 0.05150111 -0.0071376804 0.005108066 0.059832055 0.0061267978 0.057591077 0.014908723 0.03673973 0.04675466 0.046458654 0.035869524 0.013362248 0.005877544 0.014890116 0.0401038 -0.030208461 0.07258998 0.06525694 0.052362908 0.057357326 0.13539551 0.14508262 0.12267411 0.042986073 0.16692495 0.1525882 0.14671007 0.018266805 0.019580308 0.11995223 0.05340575 -0.030865321 0.04160552 0.07524672 0.10326823 0.09908808 0.0461342 0.02637098 0.004307297 0.024853878 0.111355335 0.110783115 0.09564126 0.08008502 0.091867335 0.10593119 0.11064742 0.045441534 0.041323263 0.031577855 0.05959481 0.059427924 0.012510201 0.0101044 0.05653082 0.01127406 0.040447958 0.02374444 0.007399468 0.061719738 0.065801844 -0.006721543 0.053258695 0.04612274 0.032037515 -0.027721042 -0.025726795 -0.020171713 0.05609138 -0.02760125 0.07492053 -0.027084578 0.075791575 0.068912506 0.058158785 0.063486256 0.10660219 0.02116238 0.04343598 0.05212945 0.13251029 0.09812546 0.06664272 0.019363465 -0.028259609 0.013100233 0.108823024 0.07667665 0.009728527 0.01371487 0.06623085 0.043604024 0.05332776 0.06320852 0.08281491 0.07961849 0.120960906 0.117816664 0.10183976 0.093766995 0.12712418 0.11858753 0.11777017 0.07278753 0.10264206 0.1064609 0.020562874 0.021821106 0.02541305 0.035194825 0.066096455 0.07820676 0.0153660895 0.019892953 0.07630191 0.011028571 0.07209533 0.008140556 0.009042471 0.067489535 0.008860835 0.061798688 0.013323866 0.01154833 0.034461755 0.024481786 0.05535391 0.04336154 0.06738069 0.060408488 0.05676303 0.047705162 0.045561854 0.02894289 -0.041377876 0.06595867 0.07530941 0.06805487 0.0718099 -0.013700061 -0.001588519 0.005490737 0.02710879 0.05192499 0.062369395 0.06570496 0.0024791402 0.010776337 0.025810415 0.05661023 -0.0073842285 0.045373954 0.04470294 0.03188005 0.031693153 0.0380088 0.0017570108 0.044435307 0.0040227817 0.07643609 0.09135648 0.06795689 0.124105796 0.1427317 0.03956203 0.06413514 0.086327665 0.08870473 0.078544214 0.15784287 0.16201405 0.061127145 0.07657847 0.09041213 0.07464518 0.08168139 0.019352788 0.021620408 0.02213514 0.0713886 0.08581117 0.09011378 0.019070089 0.020932898 0.022043929 0.08909619 0.012375787 0.016057868 0.07849883 0.0075261514 0.064374246 0.010068792 0.05185399 0.026985003 0.022122677 0.044037275 0.06810556 0.06549538 0.06748261 0.059555963 0.062282924 0.058990266 0.057234917 0.04578331 0.036801174 0.055980057 -0.00352569 0.040620707 -0.010708487 0.011568488 -0.012496239 -0.0146298995 0.026333021 -0.021007702 0.008719541 0.035813324 0.05500757 0.00044036808 0.006339608 0.046493586 0.06258924 -0.014440501 0.007441076 0.018502168 -0.03364549 0.017878868 0.031743307 0.010893375 0.044703618 0.07690806 0.010515391 0.00626285 0.1165594 0.123642355 0.035883233 0.13021682 0.1513625 0.007725274 -0.000836703 0.05846181 0.05141714 0.1720943 0.16328193 0.09671307 0.06484554 0.07758609 0.086736985 0.06400034 0.07814058 0.08762561 0.013356838 0.08011112 0.0776649 0.010525055 0.07028774 0.07373563 0.010344248 0.0340233 0.057000592 0.034002654 0.031568486 0.040548276 0.027490804 0.024215398 0.016688796 0.022250654 0.026528032 0.005935287 0.05446737 0.042668816 0.034640394 0.018647911 0.058932934 0.04158382 0.034606226 0.025708595 0.02464772 0.05605747 0.060882904 0.062340517 0.0426572 0.035602275 0.056048587 0.057443067 0.009017951 0.025391877 0.048252 0.047437087 0.01950528 0.0457593 0.0003503682 0.005341028 0.023086574 0.046233367 -0.0042870515 0.012054313 -0.027584892 -0.022225218 0.0028024465 -0.04517434 -0.047399595 0.040164236 0.07077294 0.012568454 0.02199217 0.08393797 0.101412505 0.035066966 -0.0069074673 0.016591663 0.010960022 0.12385436 0.113944456 0.023945358 0.14827116 0.13846947 0.07972131 0.056029 0.122474775 0.104296215 0.06509276 0.07243962 0.053841133 0.06451689 0.045319304 0.04855345 0.051768843 0.03959989 0.04338597 0.048233837 0.045001566 0.027897697 0.12941885 0.116085924 0.042211827 0.13665067 0.05694699 0.11786864 0.05922661 0.053758666 0.043196313 0.002383558 0.079195105 0.06639045 0.0594934 0.140397 0.11604455 0.055614997 0.13958354 0.063332014 0.13153873 0.07138039 0.12311613 0.07393854 0.07230059 0.07006845 0.080723554 0.062774405 0.06598891 0.14105485 0.12386383 0.08321357 0.06632489 0.06186935 0.13835046 0.14137205 0.065427735 0.05977428 0.1354535 0.13639355 0.07199348 0.1269162 0.12610656 0.080670305 0.07770749 0.12082156 0.11628373 0.09411663 0.08704897 0.08370328 0.0824756 0.08075618 0.13819118 0.13600075 0.10229024 0.06651587 0.06487928 0.13489155 0.13321343 0.12839463 0.070255816 0.07119884 0.130643 0.12762429 0.117999524 0.076951034 0.07356193
SCALARS features_02 float 1
LOOKUP_TABLE default