# vtk DataFile Version 2.0
Really cool data
ASCII
DATASET POLYDATA
POINTS 4460 float
21.473372 2.6075928 39.569534
21.456642 3.1390905 39.297245
22.416283 -0.31962436 37.71457
22.25169 0.117577404 38.053043
22.343983 0.08413063 39.368896
22.32174 0.72240263 37.049038
22.38265 0.4678829 37.165615
22.131 0.56199956 38.54583
22.063883 0.78253555 39.397552
22.298847 0.86415863 40.129955
22.372944 1.1811985 37.09748
22.308374 1.317838 37.22869
21.811775 1.8747851 38.581566
21.70063 1.7122837 39.607582
21.886236 1.807193 40.19479
22.19755 1.92541 40.666416
22.318085 2.4583893 37.930428
21.57705 2.517694 38.828194
21.51779 2.523878 39.37655
21.74968 2.4238908 40.22649
22.125948 2.3756793 40.702328
22.328487 3.6823344 36.94561
21.957386 3.4997327 37.77749
21.608732 3.2645266 38.882393
21.58757 3.475982 39.487648
21.703978 3.217142 40.166218
22.225737 3.3772933 40.806877
21.98008 4.4459534 37.367493
21.811977 4.415508 38.648354
21.820345 4.5805044 39.369194
21.948738 4.295415 40.136707
22.360394 3.967853 40.841595
22.280737 5.1662335 36.967255
22.157803 5.6556854 37.612125
22.014654 5.3284264 38.27408
22.065397 5.252195 39.44499
22.383873 5.2419443 40.379696
22.373909 5.811389 37.151516
22.246021 5.946784 37.694725
22.327837 6.0313582 38.198055
23.079967 -0.95359826 36.855083
23.02583 -1.1169091 37.505306
22.793436 -0.88631976 38.42116
22.9929 -0.98334706 39.352966
23.318575 -1.0499545 40.10136
23.254858 0.006135702 35.65949
22.697296 -0.20746577 36.747086
22.574419 -0.554582 37.484474
22.601128 -0.6231233 38.267105
22.69481 -0.39825112 39.626064
22.927895 -0.17612755 40.32432
23.35922 0.730108 35.021996
23.18993 0.20660931 35.559246
22.695606 0.3751603 36.49664
22.562235 0.34206507 40.175724
23.053766 0.58586574 40.698673
23.170229 1.5817884 35.85387
22.617552 1.316689 36.776516
22.750235 1.5211829 40.86051
22.494373 2.5194678 37.716698
22.43371 2.8940573 40.950756
22.68588 3.570565 41.18011
23.207245 4.5542803 35.867245
22.608503 4.6788735 36.432873
22.745123 4.6451616 41.194004
23.353592 4.4585114 42.113163
22.475729 5.6690297 36.936916
22.977732 5.4471273 41.150772
23.346298 5.2453213 42.086082
22.733938 6.224563 37.07255
22.646078 6.447452 37.597702
22.69471 6.5176067 38.363876
23.006168 5.8955917 40.55966
23.021826 6.862798 37.755455
22.984234 6.8771644 38.58096
23.481646 8.148107 42.12186
23.449757 9.8988495 40.845875
23.434853 10.037406 40.584515
23.396187 16.165005 37.896114
23.357708 16.605616 37.8691
23.325974 16.666538 38.43209
23.261003 17.01364 39.007362
23.36899 17.186827 37.85521
23.17416 17.403463 38.601765
23.16101 17.664135 39.469208
23.245005 17.933474 39.96302
23.230902 18.526321 38.794327
23.071808 18.401299 39.485977
23.239212 18.504267 40.017044
23.279139 18.90919 39.039104
23.243423 18.95646 39.553383
23.318094 18.900822 39.936615
23.848919 -1.7058456 37.46765
23.80736 -1.7962554 38.47944
23.83814 -1.8288575 39.42298
24.048872 -1.924562 40.19865
23.60008 -1.26406 36.81001
23.417686 -1.5230575 37.548756
23.430723 -1.5718305 38.28632
23.468985 -1.4908879 39.33845
23.811655 -1.2665286 40.54316
24.020447 -1.164598 40.91412
23.85558 0.06623343 34.916
23.783274 -0.48822004 35.670162
23.743235 -0.58664656 40.661503
23.896996 -0.2486899 41.162354
24.098902 0.61949617 34.340694
23.767977 0.5602927 34.690514
24.142336 1.3125602 34.300877
23.786734 1.3780231 34.62723
23.82989 1.4078277 41.20504
23.96508 1.8689985 34.659073
23.451511 1.8917708 35.82822
23.949017 3.0002263 41.80057
24.108482 3.7074103 35.591133
23.855274 3.5929656 42.416996
23.931934 3.949463 42.718185
23.504015 4.217804 36.025845
23.607431 4.485153 42.50484
23.744776 4.2643337 42.69004
24.121296 5.769836 35.26969
23.937405 5.3383517 35.359024
23.570894 5.695185 42.372635
24.064938 5.201565 42.973568
23.83655 6.052536 35.87219
23.503954 6.674908 36.721214
23.61936 6.6102705 39.621204
23.474869 5.871424 41.22135
23.620832 6.618943 42.54821
23.993977 6.62234 43.36403
23.632298 7.0020638 36.952442
23.93068 7.3212705 37.762775
23.284307 7.1161785 38.36204
23.624777 7.539706 42.789196
23.819796 7.419362 43.22506
24.095648 7.6971407 43.88406
23.67296 8.235031 40.80208
23.572233 8.751692 42.518417
23.774323 8.494043 43.350082
24.207726 8.590559 44.076664
24.252666 9.95039 38.77582
23.987057 9.4628935 39.778946
23.546366 9.643452 40.640896
23.69161 9.526721 42.38045
23.80583 9.346617 43.314632
24.16201 9.340095 43.94671
24.009275 10.587432 38.79116
23.597118 10.623535 39.483044
23.57557 10.502924 40.429802
23.517094 10.403585 41.388035
24.182512 10.12735 43.431015
24.054056 11.316285 38.865086
23.788485 11.5337515 39.506134
23.688307 11.32036 40.359776
23.774174 11.169175 41.31341
24.0927 11.16141 42.165524
24.231003 12.043831 39.118443
24.122145 12.180581 39.724934
24.029345 12.013343 40.40015
23.888538 16.145288 37.137882
23.686964 16.017792 37.623142
23.756128 15.87849 38.25123
23.836815 16.018267 38.82962
23.816856 16.593592 37.141567
23.557793 16.608547 37.34661
23.951456 16.53883 39.430645
23.86585 17.127335 40.015812
24.06924 17.086351 36.953606
23.541574 17.421139 37.60265
23.696321 17.766506 40.321186
24.025444 17.951344 40.603703
23.777027 18.337046 37.984272
23.410044 18.5188 38.51451
23.57026 18.65136 40.390038
24.034826 18.497404 40.70346
24.004519 18.94262 38.17446
23.627888 19.131584 38.821777
23.58348 19.322592 39.661636
23.728909 19.176453 40.202682
24.106596 19.155298 40.624775
24.019463 19.686953 39.535744
23.961359 19.612188 39.90369
24.115562 -1.6364033 37.032738
24.507257 -1.9189651 38.075073
24.604275 -2.153742 38.863426
24.720701 -2.36153 39.60161
24.702217 -2.294108 40.301094
24.914696 -1.8941925 41.14118
24.366402 -1.0563104 36.097332
24.494148 -1.4639593 36.76078
24.593607 -1.4518507 41.267593
25.04279 -1.123611 41.78068
24.703583 0.14323954 34.327965
24.430822 -0.093007326 34.725796
24.844044 -0.24019074 41.80972
24.512241 0.5808178 34.234478
24.25818 0.2673841 34.4424
24.767935 1.4148215 34.030262
25.312138 2.9715931 33.288746
24.40289 2.3751159 34.56088
24.876879 3.138485 42.51521
25.34784 3.9955192 32.94042
24.72843 3.529759 34.086216
24.879053 3.1239822 34.20097
24.591772 3.5548668 42.823612
25.197472 4.4331536 33.125465
24.686821 4.157504 34.317837
24.578684 4.394298 43.162086
25.31341 5.430348 33.238083
24.779446 5.3957286 34.488873
24.648966 5.4546504 43.469044
24.89707 5.8036413 43.78931
24.708948 5.956613 34.892345
24.787573 6.838687 44.248245
25.49257 7.7029724 30.208958
24.545315 7.49649 36.14304
24.726532 7.492003 44.319843
25.078306 7.563278 44.573895
25.336 8.177128 59.46876
25.308956 8.19911 59.946087
24.958935 8.194147 36.59909
25.020277 8.647274 38.04481
24.576443 8.81634 44.349518
25.281977 8.744518 59.08243
25.109291 8.678081 59.571915
25.158464 8.686053 60.17401
24.667063 9.377531 44.28429
25.224985 9.423685 59.038956
25.000849 9.419876 59.56627
25.028126 9.405563 60.23882
25.310074 9.571497 60.79174
24.63996 10.60331 38.39807
24.715353 10.641157 43.55292
24.800884 10.090221 43.997597
25.267828 9.918483 59.154877
25.182487 10.179157 59.6678
25.176922 10.2827425 60.104393
24.866753 11.306317 38.335613
25.01386 11.6654415 38.483562
24.891376 11.2309 43.17567
25.410643 11.028349 59.862022
25.40793 11.147225 60.126957
24.993942 11.889132 38.61903
24.669258 12.368389 41.374306
24.923506 12.315612 42.21684
25.253378 11.85695 43.04464
24.454254 12.676787 39.719265
24.989914 12.812976 40.23191
24.847536 15.373533 37.37306
24.877247 15.302254 38.266003
24.597357 15.795218 37.020786
24.404036 15.554547 37.500957
24.753767 16.607292 36.621174
24.380196 16.64023 39.894424
24.714481 17.299562 36.72383
24.552929 17.411442 40.54958
24.403011 18.159273 37.280323
24.78359 18.595852 37.465393
24.467419 18.56 40.851997
24.687668 19.321259 38.24013
24.333094 19.524101 38.577312
24.4796 19.563173 40.48283
24.569082 19.139164 40.811348
24.378344 19.728292 38.922848
24.457644 19.876493 39.486263
24.592966 19.766626 40.2941
25.421785 -2.5839205 39.90582
25.698076 -2.5918946 40.21852
25.066074 -1.7665508 37.390667
25.3158 -2.1027079 38.527374
25.180874 -2.5021029 39.790604
25.340612 -2.434375 40.48754
25.710152 -2.1711872 41.394974
26.06244 -1.9169062 42.055943
26.051388 -1.2163669 36.06418
25.772022 -1.4288802 42.210106
26.210773 -1.1713424 42.63428
25.81701 0.117406026 34.293377
25.661062 -0.568907 42.2818
26.027828 -0.7261966 42.635902
25.526735 0.67367595 33.998764
25.647486 0.50470227 42.140896
25.467754 1.0591173 42.068214
25.961802 2.7077281 33.05069
25.578125 2.416795 42.097385
25.222013 3.7932923 43.056404
26.447313 4.69282 31.556536
25.564991 4.480303 43.4159
25.225664 4.888616 43.56203
26.368195 5.2220535 30.620903
26.099403 5.695396 31.636154
25.44895 5.976785 44.096615
26.121038 7.078055 28.4904
25.914265 6.551017 29.519955
25.85469 6.5561357 30.319748
25.68477 6.9261713 32.924324
25.72192 6.4904995 33.385796
25.598246 6.37199 44.37962
26.220097 7.510667 27.784184
25.828249 7.520857 28.64114
25.644905 7.353518 29.748669
25.6026 7.6934404 30.508974
25.617073 7.6192837 31.224907
25.699945 7.460353 32.27799
25.553879 7.544194 35.509148
25.721762 7.326096 44.639126
25.909582 7.891421 58.93125
25.721098 7.8079357 59.47871
25.636675 7.9175744 60.207462
25.91499 7.998224 60.769
26.073002 8.51258 27.747889
25.748098 8.362076 28.627497
25.670881 8.4831505 29.377306
25.593273 8.461118 30.383488
25.864025 7.965616 31.746862
25.97085 8.261594 32.559692
25.4613 8.483803 36.38342
25.493965 8.618446 44.597477
26.141844 8.59142 58.39342
25.58318 8.7117605 58.77326
25.445442 8.4742365 60.586723
25.62264 8.724597 60.8802
26.18428 9.097549 27.845852
26.08755 9.368709 28.556568
25.991348 9.277892 29.694004
26.006075 9.164563 30.430128
26.141434 9.039987 31.417513
25.28572 9.512775 44.408413
26.155807 9.543919 58.395557
25.495804 9.419505 58.793762
25.594753 9.378247 61.01341
26.283459 9.715708 28.955276
26.248085 9.672939 29.221025
26.310953 9.622942 30.032343
25.727491 10.034476 38.07657
25.184013 10.257472 44.01847
25.753883 10.038392 58.812473
25.630081 10.4876995 60.948856
25.715008 11.080135 38.25076
[...]
POINT_DATA 4460
SCALARS features_00 float 1
LOOKUP_TABLE default
0.4852433 0.4731372 0.47947377 0.44355336 0.402443 0.38865733 0.41825372 0.41403663 0.4156605 0.39647815 0.3315944 0.3160264 0.39836362 0.46690387 0.45106223 0.41259214 0.28674567 0.4329293 0.4802624 0.46591988 0.41911316 0.2862334 0.342618 0.43988407 0.47012943 0.46530157 0.3902067 0.4103058 0.42712596 0.4212823 0.41199124 0.35151953 0.40639424 0.4131658 0.42477635 0.3990126 0.3425783 0.3980587 0.4033485 0.3980843 0.5006522 0.4918146 0.46910316 0.4371185 0.42569354 0.49299043 0.48224258 0.49297008 0.4706117 0.4015878 0.37127733 0.45456585 0.4856612 0.44360846 0.3746369 0.34163234 0.35574055 0.31770968 0.35074753 0.252406 0.36556715 0.31519735 0.26433244 0.36708537 0.2882197 0.27102393 0.3961447 0.26544017 0.2382534 0.37761086 0.3803165 0.38042265 0.2994469 0.3656655 0.36806595 0.31599295 0.39882895 0.43218216 0.75214976 0.7619145 0.7748741 0.82745147 0.7628579 0.8190277 0.87749904 0.88409686 0.8385097 0.8797193 0.88972634 0.84691477 0.8772578 0.8905419 0.435176 0.44901514 0.47409272 0.48745117 0.47173733 0.4683426 0.46535456 0.46585998 0.44787693 0.43627524 0.47285497 0.4837239 0.38716558 0.34368944 0.4460396 0.45702738 0.3944964 0.3904739 0.20799704 0.3059736 0.29718107 0.2321968 0.04928231 0.2836785 0.2964998 0.20315635 0.28336912 0.29424584 0.20316325 0.20973527 0.23292205 0.30800235 0.2944122 0.3330596 0.35344884 0.21731302 0.23888186 0.35300097 0.3149736 0.28928545 0.34986418 0.33402884 0.3766091 0.45167917 0.23448494 0.38429943 0.44412243 0.47884196 0.48556888 0.43732554 0.3902238 0.4028079 0.46078193 0.47175628 0.5863292 0.5746552 0.48841912 0.40574098 0.44407225 0.64651227 0.65713537 0.56496906 0.48983625 0.46296212 0.70508397 0.6979977 0.6213682 0.75791633 0.76186097 0.7574604 0.7789238 0.7457179 0.75140584 0.8157107 0.8404087 0.7144423 0.750131 0.8683832 0.86405444 0.7581522 0.8119179 0.88988936 0.88092506 0.7440693 0.8181411 0.87740636 0.8967274 0.8972364 0.86725307 0.8887804 0.40326 0.37704206 0.39577264 0.41933835 0.4537354 0.46202612 0.39152312 0.347847 0.45593655 0.42073053 0.42478043 0.43449247 0.34433526 0.4347633 0.45116264 0.35906306 0.14481887 0.16320437 0.23248626 0.1248478 0.061980452 0.06757226 0.2755677 0.096847095 0.059385173 0.2961079 0.003006287 0.05708404 0.31717288 0.32565096 0.0981996 0.4093161 0.43445382 0.19259432 0.44706032 0.42541707 0.7277654 0.7601247 0.10141691 0.00043925643 0.46164477 0.70828223 0.76470995 0.78253466 0.44041386 0.7230822 0.78044367 0.8024825 0.7646603 0.4910415 0.38532448 0.40037557 0.73704696 0.7776731 0.79072785 0.515075 0.5318142 0.36616933 0.7756811 0.78648305 0.5721535 0.53735614 0.43682188 0.34835 0.7032641 0.62454164 0.79212004 0.8199321 0.74856406 0.78597486 0.6570949 0.78188086 0.6183406 0.8089284 0.66328645 0.6106109 0.8708013 0.6936984 0.7632167 0.9015553 0.88602257 0.7984512 0.8613403 0.89944404 0.34733427 0.34010506 0.27199748 0.2818786 0.37126654 0.39997953 0.42540213 0.42231357 0.14782327 0.41854346 0.38294345 0.2941802 0.3608708 0.3549562 0.34419692 0.25147283 0.14205757 0.15317854 0.05034277 0.24022272 0.056656513 0.22515932 0.25942427 0.14212331 0.09732969 0.30084884 0.42053685 0.31785494 0.28331858 0.100245066 -0.02360931 0.32085744 0.5277832 0.48315012 0.42057163 0.41383815 0.3605733 0.26176792 0.11991036 0.37610364 0.59800684 0.67846376 0.72867334 0.6785377 0.65314335 0.606359 0.56626064 0.50058174 0.39293134 0.38053882 0.07964357 0.36108524 0.53085744 0.6425054 0.74437964 0.70697284 0.66072273 0.6313348 0.5716918 0.536529 0.5047659 0.35803634 0.5484213 0.6702493 0.7057808 0.60773563 0.594913 0.5508783 0.18997943 0.34740263 0.66311693 0.75431657 0.332137 0.75934625 0.77977467 0.8005954 0.79117715 0.4590971 0.37741873 0.3273783 0.80438316 0.83432007 0.82200074 0.56972253 0.5061874 0.43126094 0.6717678 0.65365213 0.7063914 0.5312434 0.5786845 0.6206184 0.45818985 0.47051272 0.7506771 0.46981293 0.7721329 0.6038447 0.66045743 0.80312467 0.8370434 0.68019676 0.81842345 0.8493209 0.19392687 0.31333816 0.32832053 0.12522684 0.15047455 0.34672236 0.36941013 0.40889865 0.15527639 0.12092523 0.40093347 0.393286 0.2360715 0.31223342 0.054921135 0.25634807 0.022399727 0.07423328 0.09154329 0.025405569 0.1014258 0.12306997 0.12393562 0.14879693 0.49984998 0.4323693 0.22516939 0.19500309 0.6030091 0.56671554 0.44110388 0.38597566 0.24176097 0.36239928 0.5501412 0.62954456 0.6052094 0.5641757 0.3264721 0.36294836 0.42247063 0.5663455 0.6302955 0.24916059 0.44049245 0.58933663 0.5054323 0.6434411 0.6544894 0.48377725 0.406803 0.103673644 0.06536035 0.39940432 0.5666604 0.5573158 0.6379559 0.62072587 0.59162176 0.53871566 0.20573635 0.57433325 0.61318994 0.59001946 0.240175 0.685086 0.7273842 0.67771053 0.32219693 0.26385522 0.7550244 0.862044 0.873121 0.8333277 0.51192 0.328428 0.5993845 0.56197256 0.52306676 0.54300195 0.55810595 0.4122803 0.48435035 0.4058018 0.42844778 0.5140705 0.3818698 0.38229552 0.6320615 0.44655982 0.5060269 0.67025644 0.71837497 0.45871285 0.4765599 0.5611839 0.6375618 0.76217806 0.50539184 0.51584977 0.52195686 0.53179765 0.5407357 0.53195745 0.5209271 0.1719779 0.19713767 0.20551324 0.1898377 0.23152511 0.2704344 0.1297759 0.13558108 0.17407647 0.3852646 0.12108949 0.098313294 0.34319612 0.0669392 0.510808 0.15316612 0.8313056 0.8666851 0.5584887 0.49893922 0.03689637 0.76909995 0.8276885 0.8668916 0.24241933 -0.0025001317 -0.017997228 0.71437335 0.80685484 0.8496468 0.022911333 0.10995463 0.036440138 0.08449924 0.23111881 0.59858584 0.5697385 0.43611294 0.30525193 0.3121614 0.28329632 0.63168347 -0.19417918 0.3375246 0.5702474 0.50599056 0.65566987 0.3134224 0.33093363 0.64310354 0.63301027 0.030606367 0.2576375 0.3240068 0.4521014 0.6212498 0.6380029 0.2915427 0.21105863 0.15572949 0.031832542 0.065244704 0.048061974 0.48101765 0.6281812 0.6113268 0.56888425 0.46102694 0.3231979 0.05229901 0.050508395 0.40435594 0.5294112 0.5764699 0.048189376 0.038393438 0.09283523 0.63006383 0.1727796 0.066254385 0.72371626 0.7845607 0.4419449 0.08034033 0.4749868 0.9115213 0.8408256 0.4422881 0.32283524 0.56644946 0.5433774 0.46381766 0.4536726 0.534768 0.540234 0.51168394 0.4083202 0.3868252 0.47763285 0.4902951 0.51871204 0.52379966 0.4776817 0.38269982 0.36961842 0.43123564 0.470289 0.48656896 0.45121688 0.38015452 0.43065104 0.27193025 0.34707475 0.41997254 0.45715752 0.41365024 0.53515935 0.33620846 0.39085895 0.42170316 0.4191843 0.4583672 0.50337696 0.41361994 0.47057748 0.4890347 0.45979303 0.51333535 0.48674548 0.30597812 0.38284376 0.47856903 0.50961035 0.49361062 0.46190625 0.34153953 0.44563425 0.4744535 0.4655951 0.40929496 0.4332876 0.45441955 0.41815522 0.4316662 0.19657579 0.19933099 0.14032944 0.17518288 0.19609788 0.20422225 0.19671798 0.19437051 0.23833226 0.21829142 0.26030353 0.25850618 0.5469427 -0.16352075 0.17060584 0.5744146 0.5669591 0.53184783 0.4899723 -0.11899736 0.006735474 -0.010758758 0.73526275 0.7956126 0.8437641 0.82750237 0.5624008 0.5730156 0.44266045 -0.049847864 0.4691368 0.6710526 0.8639567 0.8349904 0.49735957 0.5054837 0.78685504 0.77683604 0.11479999 0.5004212 0.77804923 0.741005 0.46687278 -0.1538766 0.45456195 0.51159996 0.6041255 0.25972107 0.24386945 0.21535656 0.11846737 0.61291885 -0.22960314 0.42905134 0.48270386 0.57087785 0.6014923 0.50698483 0.2899473 0.30837673 0.4242057 0.6566694 -0.2781735 -0.20062795 0.22782756 0.4048898 0.45197445 0.49680167 0.45636076 0.32139105 0.42675906 0.65513444 0.2268762 0.29838973 0.32735556 0.35818237 0.3616677 0.30548802 0.40416962 0.6283401 0.61463755 -0.00026492774 0.25431636 0.2597519 0.20678015 0.4110076 0.58347636 0.10310745 -0.030870676 0.0366748 -0.0014497302 0.4031585 0.59784365 0.5840808 0.38146096 0.1363465 -0.06659057 0.03681378 -0.023883581 0.20254216 0.44533852 0.5745927 0.40238404 0.48911613 0.51305574 0.071627855 0.43564317 0.5961946 0.6740087 0.07994247 0.06456861 0.5309435 0.46144316 0.35712793 0.29173362 0.40682557 0.049055066 0.15046343 0.50993204 0.56838983 0.40067828 0.23189214 0.36481452 0.38035777 0.47691458 0.39903963 0.39607027 0.39653078 0.38253438 0.37680602 0.18146674 0.15453131 0.32671198 0.3881265 0.39686078 0.29498616 0.16481243 0.14268485 0.32364285 0.40838125 0.3706616 0.37435594 0.15571629 0.23016526 0.24351013 0.35373947 0.34037548 0.17681365 0.29225338 0.40420404 0.41919836 0.44004464 0.4690305 0.34018007 0.14028865 0.4337504 0.39544562 0.3230795 0.18473446 0.25366426 0.44377726 0.40831822 0.25478363 0.19249295 0.272673 0.44625795 0.42705217 0.40779385 0.28516608 0.35495746 0.42512947 0.42874402 0.4245389 0.41649652 0.41414666 0.17562838 0.17173576 0.11921166 0.57178235 0.09773869 0.18001187 0.16534196 0.12080393 0.116240144 0.106762156 0.5388793 0.57871187 0.33840728 0.26465237 0.29569596 0.414056 0.4605088 0.48822626 0.004629329 0.22797342 0.2744101 0.2516351 0.5414107 0.5202667 0.49326688 -0.092923805 0.16962989 0.6412543 0.67472595 0.7292971 0.5527568 0.5665412 0.443689 0.04516962 0.5514132 0.65357876 0.73148113 0.7571956 0.7463052 0.52855724 0.050561294 0.066151455 0.48819596 0.7598344 0.74360573 0.42497975 -0.02238575 0.023720574 0.25151426 0.73767745 0.08919302 -0.4921059 0.32737187 0.44227505 0.5287365 0.4942392 0.107729554 0.11198328 0.6976882 0.7174353 0.25456476 -0.4862743 -0.29103333 0.22500224 0.32801354 0.46434888 0.57943165 0.5314138 0.46738502 0.55036616 -0.23172173 -0.23506168 0.075654365 0.2925368 0.48199648 0.2344028 0.54070127 0.4084271 0.16486837 0.23912334 0.3267725 0.5759717 0.3366544 0.31321073 0.32887745 0.5502223 0.5206443 0.21011978 0.26493683 0.26902008 0.24036585 0.2528933 0.308985 0.4932208 0.46510282 0.0009371191 -0.283789 -0.30953878 -0.04349336 0.23219457 0.005351294 0.3202446 0.47598958 0.48558474 0.37384176 -0.2033491 0.0007204693 0.07298671 0.037225053 -0.22595258 0.34828985 -0.2171885 0.07591553 0.33074036 0.04872773 -0.007593412 -0.12460351 -0.07396902 0.07651109 0.10113625 0.44073915 0.20804001 0.08678215 0.0120580755 -0.0030290969 0.30920416 0.49077487 0.07000597 0.08736542 0.4311973 0.42516047 0.15980618 0.014719486 0.24922821 0.24658944 0.18298057 0.15852457 0.20908326 0.02122556 0.13718908 0.3555088 0.055471674 0.16530374 0.3707489 0.10945084 0.371511 0.34853312 0.09592982 0.17546783 0.12249046 0.2654748 0.36440998 0.027241543 0.059972003 -0.012647388 0.23500332 0.39173514 0.27344432 0.03662065 0.18934914 0.22262418 0.38892063 0.36626175 0.31337175 0.3334879 0.032377616 0.07935713 0.13083434 0.35747448 0.33128467 0.28764406 0.20377223 -0.028682977 0.097497925 0.4500761 0.24845862 0.08374386 0.35168788 0.51826394 0.4983266 0.3547776 0.5008622 0.33526617 0.44820848 0.36095333 0.3222705 0.39147788 0.2996922 0.22783205 0.30457386 0.39083678 0.37363485 0.38568866 0.37432998 0.5598041 0.43977433 0.35361022 0.07035412 0.091762155 0.06448653 0.044017807 0.18190897 0.24505162 0.32413435 0.5126496 0.5657233 0.582028 0.4489796 0.31233573 0.21055785 0.027972244 0.11545816 0.00710579 -0.10478224 0.08989921 0.20394573 0.28036416 0.34296262 0.36500537 0.512998 0.5350549 0.32451853 0.3083315 0.30114204 0.2670317 0.27282724 0.26913726 0.4345642 0.2536279 0.16453567 0.11070137 0.6974666 0.73056734 0.6872629 0.5657328 0.5890838 0.624048 0.48054677 -0.046648733 0.06882226 0.014839396 0.7429463 0.725704 0.64536333 0.5859982 0.5229654 0.5830192 0.6419971 0.665951 0.08010583 -0.0010123551 -0.002906531 0.06511866 0.66409546 0.6535672 0.5909581 0.51400375 0.6802603 0.6920264 -0.016000155 0.07019261 0.05151424 0.06326842 0.3840754 0.40562803 0.36329985 0.3009725 -0.10840584 0.13366231 0.6821569 -0.3050458 0.039125532 0.24960104 0.42588717 0.6581588 0.22891852 -0.2526468 0.059946653 0.3161496 0.41437915 0.10155635 0.4550258 0.36283198 -0.04080504 0.09606781 0.17274442 0.13020088 0.4604332 0.1089749 -0.1371625 0.25791907 0.5064498 0.41720194 0.24035856 0.06602414 -0.138378 0.24961057 0.50552595 0.41280672 0.20427555 0.17166221 0.087390505 0.18974435 0.26140675 0.39946112 0.35800925 0.2695047 -0.11358498 -0.29665208 0.08754325 0.14686605 0.12650855 0.1146146 0.07541816 -0.047028467 0.023877433 0.22177923 0.3537634 -0.30021045 -0.075889796 0.06280042 0.03194402 0.0667637 0.17422512 -0.17605339 0.059409827 0.18538703 0.15310504 -0.13175707 -0.07742249 0.10170153 0.10667312 0.2446572 0.059664957 -0.064255424 0.090801395 0.15618452 0.40779805 0.09078033 0.43833736 0.431731 0.3103416 0.17219351 0.1531693 0.25858974 0.36527157 0.5202432 0.5441907 0.3394441 0.20702153 0.21889706 -0.13874513 0.28111786 0.4251176 0.6042339 0.34994817 0.35452813 0.23072441 0.109441936 0.070942655 0.11991501 0.36120436 0.24502145 0.22690444 0.18355787 0.14690919 0.09084134 0.40813488 0.35386992 0.31745738 0.34539014 0.3073231 0.18690132 0.077835776 0.346173 0.30919906 0.23206311 -0.04238701 0.42162994 0.40467584 0.4864906 0.5368986 0.22434828 0.56216645 0.5283632 0.47687972 0.30264372 0.37551945 0.48299992 0.41732624 0.3202368 0.46578926 0.37489533 0.3405367 0.21896318 0.23572956 0.26184815 0.2705788 0.51663226 0.18735114 0.21151042 0.1894193 0.110851355 0.20919082 0.27662635 0.54935676 0.5306828 0.46489376 0.358846 0.2746407 0.15610734 0.14190337 0.091591656 -0.036740754 -0.00023184344 0.114405654 0.22475138 0.3286454 0.3744738 0.38736075 0.51851577 0.54486364 0.29190552 0.27251956 -0.032902755 0.36654305 0.35243186 0.42452124 0.38193533 0.3009733 0.3934003 0.32462615 0.2643777 0.60260963 0.64870906 0.6469799 0.3245871 0.20081289 0.47633713 0.63099426 0.70000523 0.643964 0.56708395 0.5019548 0.54278415 0.561759 0.35820523 0.03973341 0.07502185 0.13466944 0.5409992 0.3916999 0.39749068 0.5331947 0.5836829 0.27230182 0.031894114 0.15873075 0.61149776 0.39081624 0.54425055 0.62079453 -0.040922172 0.12500873 0.13583574 0.2627933 0.32969067 0.57104933 0.21527314 -0.47168624 -0.1416262 -0.09371833 0.105751395 0.01160714 -0.02330447 0.0067345574 0.21672378 -0.2828784 -0.33857274 -0.19492097 -0.23440452 -0.23215282 -0.2616571 -0.30995083 0.28974223 0.21589853 -0.22705372 -0.27653763 0.16802204 0.23873612 -0.16842194 -0.14661741 0.06553146 -0.1483635 -0.22055101 0.2670333 -0.17410511 0.1030764 0.22987244 0.27087593 0.0238401 -0.04722134 -0.10327387 -0.16552407 0.048895493 -0.011004573 0.12595968 0.05964405 0.014341481 -0.13510248 -0.32511914 -0.33364987 -0.0023041698 0.0034050643 -0.3252777 -0.26742673 -0.07392882 -0.16534671 -0.19230273 -0.04853923 -0.0070025367 0.010459857 0.021774605 -0.04500366 0.033929367 0.023546733 0.27238068 0.001238808 -0.15555054 0.30517334 0.0774505 0.07702616 0.3694259 0.107017964 -0.10664829 -0.076415315 0.47407258 0.26515314 0.22103655 0.20421249 0.08616754 -0.095494166 0.57247126 0.28322914 0.22837186 0.11691856 -0.12558325 0.32431442 0.50509566 0.6173506 0.6178493 0.34221834 0.29183152 0.24019122 0.12653318 0.16436869 -0.07095798 0.28201014 0.51706094 0.35303366 0.31897664 0.31087154 0.33420485 0.34361982 0.1744346 -0.16928476 0.31043458 0.31974497 0.34428692 0.30914336 0.20717728 0.38226688 -0.23850225 0.53252655 0.52736175 0.19760926 0.3013638 0.54450786 0.35966575 0.43695152 0.47171885 0.6475532 0.5622488 0.5490803 0.5517113 0.6799555 0.601851 0.50309616 0.3902281 0.2843544 0.532426 0.59256583 0.60206425 0.5533091 0.42582458 0.36012387 0.21973385 0.13987781 0.16133705 0.41486907 0.65543914 0.6526859 0.21130143 0.15027638 0.22922565 0.20257205 0.5082172 0.49521455 0.4003413 0.35736194 0.13899997 0.20649815 0.09035024 0.032400478 -0.0032898374 0.3809219 0.49284163 0.492876 0.49783564 0.13349007 0.3163694 0.49860635 0.49079475 0.43747035 0.52398187 0.5928655 0.5335084 0.049922794 0.031015247 0.37314075 0.5021135 0.38306338 0.4544968 0.48557353 0.5088576 0.1361782 0.04643153 0.35270554 0.2954576 0.38734815 0.47465092 0.47092244 0.14645694 0.42696837 0.332976 -0.28358993 -0.32901385 -0.21505262 0.37841666 0.37147203 0.31198862 -0.2444157 0.2561495 0.28522468 0.307521 0.13654186 0.15267521 0.32360572 0.06743973 0.26580927 0.22888541 0.14947659 0.035054512 0.027779453 -0.037927885 0.048558958 -0.06338253 0.09907997 0.087364644 0.014614224 -0.13809726 -0.102722704 -0.07303959 -0.06922974 -0.11009792 0.0325685 0.03742151 -0.02317294 -0.36714545 -0.25629202 -0.1651506 0.19287357 0.23072864 0.091656074 0.067962825 -0.22551239 0.27964047 0.26372418 0.40907562 0.2542451 -0.04854327 -0.0889979 0.32602113 0.31717044 0.4208706 0.44769233 0.38834792 0.36701533 0.1772879 -0.06999144 0.5535801 0.52633613 0.2772691 0.13369325 0.11157563 0.0860779 0.6079786 0.2812195 0.27848327 0.29060057 0.14901413 -0.003019303 0.47513002 0.5615212 0.59424603 0.30481386 0.28941503 0.277835 0.28539622 0.3015227 0.2705964 0.17757003 0.17621231 -0.26641184 0.5121361 0.24171907 0.37279105 0.63014454 0.43658647 0.7063071 0.51720417 0.7364291 0.5629028 0.7280073 0.7232064 0.6454111 0.6485859 0.72437 0.63747805 0.501551 0.363404 0.29823142 0.13969181 0.15003213 0.36907345 0.5467073 0.6880735 0.69019926 0.6661713 0.5176844 0.74203944 0.1273106 0.035854038 0.0722383 0.18027319 0.5868452 0.21811381 0.23351552 0.16717502 0.08902782 -0.0014394112 0.020774331 0.028048012 0.17082079 0.20306367 0.1992032 0.48437706 0.44459033 0.4212292 0.3956284 0.28602603 0.23304792 0.5336453 0.506069 0.53406894 -0.30687556 0.4309796 0.4832339 0.463916 0.4430815 0.02282092 0.06639898 -0.008982308 0.024289386 0.26622856 0.46234936 0.38876218 0.3370704 0.37966162 0.20574163 0.2580096 0.44770852 0.44699854 0.047282577 0.42271155 0.3867512 0.34121305 0.32593685 0.3954716 0.2770735 0.40466157 0.15200922 -0.10404313 0.40607247 0.046618395 0.11852082 -0.09564574 0.16758329 0.18036154 0.1858395 0.17942902 -0.13367271 -0.21122433 -0.2876134 0.14130026 0.33819717 0.070264615 0.011809021 -0.21540168 0.2100307 0.42404228 0.43573633 -0.14496009 -0.04730863 0.2785834 0.27525926 0.48052514 0.48717242 -0.09925341 -0.115679145 0.4284312 0.5005703 0.4213975 -0.010629706 -0.024049126 0.49395275 0.44249833 0.22520523 0.025384784 0.60015404 0.23605546 0.24826115 0.0559081 -0.42034197 0.3911578 0.5444523 0.5902906 0.25288394 0.21548833 0.22715604 0.20175499 0.15721166 -0.4028557 0.21120796 0.2282098 0.23281743 -0.3042816 0.5035572 0.34617656 0.40250474 0.53518426 0.7660992 0.77013934 0.63068414 0.7602004 0.7470894 0.6752308 0.7408742 0.72422487 0.5857769 0.26496032 0.1417021 0.092634715 0.43351048 0.5927948 0.68866324 0.71341807 0.69897246 0.68261606 0.776 0.8276212 0.83423305 0.5567071 0.6169167 0.81933284 0.8072746 0.19571409 0.33212876 0.73270667 0.17523059 0.11182146 0.12360274 0.077156425 0.6402783 0.7163283 0.091573164 0.32652754 0.4707538 0.24667832 0.23475426 0.16600345 0.29599753 0.33264512 0.46682978 0.41506135 0.26029357 0.1415098 0.13925831 0.48996946 0.42420197 0.33166486 0.21600339 0.14873838 0.5163689 -0.113795824 -0.025224064 0.31472582 0.38136056 0.4609192 -0.04494728 0.4120096 0.3380517 0.38546783 0.26283062 0.2996277 0.3167975 0.38012528 0.3753771 0.35012838 0.107937805 0.3084167 0.31195801 0.43139887 0.34571326 0.30239305 0.4479708 0.46563604 0.22554395 0.26617226 0.4545341 0.17133792 0.50178504 0.4807251 -0.25802281 0.5176724 0.47511774 -0.3296488 0.41162023 0.15227854 -0.26167792 -0.20330566 0.035230435 0.13422382 0.18330395 0.19554853 0.19083433 0.17230174 0.070753336 0.102669686 0.11279968 0.38682497 -0.25621554 -0.25339335 0.13643578 0.4602157 0.2840534 0.54490227 0.52954805 -0.053204447 -0.11654572 0.41731566 0.44907662 0.5350261 0.48719093 0.49605834 0.5137897 0.41531926 0.3300789 0.54880255 0.2543941 0.22993255 0.51242304 0.21578917 0.11883717 -0.0033057183 -0.0031198412 -0.17229807 -0.27746823 -0.030748468 -0.24700165 0.27508876 0.11247324 0.33578503 0.308297 -0.22176263 -0.3868425 0.26527897 0.36427835 -0.015265763 0.30796033 0.5073978 0.31731832 0.6926817 0.51713884 0.60685164 0.7567892 0.67178524 0.7478981 0.7166062 0.6302062 0.65185934 0.71694577 0.6719123 0.24370115 0.29452574 0.16341373 0.4166243 0.5855317 0.66161525 0.67769474 0.70338607 0.86844903 0.60265934 0.7793729 0.8554476 0.8489697 0.8215679 0.35009816 0.4438391 0.8190527 0.79376924 0.24219508 0.15624371 0.099381134 0.19975948 0.74539924 0.19545157 0.29235396 0.32738614 0.21829419 0.68435144 0.3894273 0.3467144 0.30795395 0.43536806 0.4