# vtk DataFile Version 2.0
Really cool data
ASCII
DATASET POLYDATA
POINTS 8992 float
61.27878 -10.052011 6.001484
61.195183 -10.206735 6.6019387
61.19146 -10.043817 7.0754757
61.221436 -9.585671 5.903505
60.90599 -9.41385 6.608158
61.012882 -9.377811 7.291768
61.18732 -9.016983 7.8002224
61.03404 -8.53191 6.045464
60.72785 -8.429799 6.740335
60.81646 -8.468408 7.415215
61.072662 -8.380615 7.8340836
61.137886 -7.669572 6.27299
60.89473 -7.6029463 6.8308077
60.913353 -7.6218023 7.2863836
61.180885 -7.850752 7.8875885
61.92595 -10.737814 6.071677
61.76916 -10.768238 6.488479
61.84841 -10.734704 7.0763273
62.066742 -9.898822 5.355607
61.753716 -10.314808 5.7817326
61.448925 -10.58507 6.62839
61.58888 -10.348277 7.3117075
62.002888 -10.239784 7.724262
61.875084 -9.406966 5.361137
61.543182 -9.54567 5.577143
61.649963 -9.392227 7.9766364
61.896706 -8.610735 5.2889795
61.494778 -8.645985 5.5874896
61.62682 -8.630596 8.180687
61.49646 -7.6708403 5.9313965
61.469864 -7.7997646 7.9855595
61.46135 -7.338717 6.2276535
61.556126 -7.08848 6.6727905
61.32693 -7.175548 7.289833
62.380688 -10.6403675 5.8441234
62.313564 -10.9198 6.627247
62.335625 -10.774799 7.2678022
62.35469 -10.114736 5.3943133
62.319977 -10.391008 5.601352
62.402416 -10.338416 7.8429136
62.36837 -9.546814 5.188026
62.434315 -9.051164 8.442769
62.487816 -8.564425 5.025882
62.61257 -8.200308 8.495304
62.986652 -7.801517 5.0251665
62.44115 -7.496292 5.4492397
62.17285 -7.600209 8.181021
62.98398 -7.300868 5.3055553
62.50858 -7.0613046 5.8655534
62.83383 -6.7150884 6.492908
62.19096 -7.0831294 7.6171136
64.082466 -10.83997 7.090419
63.17138 -9.791139 5.2039204
63.40746 -10.519456 5.645431
63.58949 -9.322129 4.863067
63.413845 -9.454311 8.782433
63.565342 -8.41268 4.682508
63.725494 -8.500992 8.835137
63.57133 -7.860853 4.833451
64.28521 -7.9041147 9.155439
63.782063 -7.248708 5.1657953
64.155754 -6.745487 8.804132
64.612595 -10.88743 6.287811
64.87231 -10.698282 8.605836
64.24167 -10.453883 5.6509943
64.65659 -10.452274 8.635866
64.58993 -10.339396 8.897393
64.495056 -9.212682 4.897534
64.38103 -9.646379 9.092958
64.356766 -8.458295 4.6874037
64.80222 -8.05061 9.560985
65.00974 -8.155731 9.794816
64.44265 -7.7929516 4.839168
64.4547 -7.426634 9.516792
64.698715 -7.5285077 9.821022
64.33832 -7.183803 5.1097693
64.39084 -6.822829 5.589687
64.49467 -6.77989 9.368723
64.91873 -6.689048 9.978472
64.66253 -5.5692487 6.751108
64.58829 -5.6136756 9.387585
65.250626 -5.5685554 10.163259
64.90323 -4.7160015 6.928983
64.747 -4.4091744 7.2711415
64.544556 -4.4688916 8.740252
64.614426 -4.625501 9.158968
65.15686 -4.7693377 9.949765
65.069534 -3.5982323 7.668994
64.96592 -3.652957 8.4453745
65.07407 -3.9775155 9.363831
65.24176 -3.3465674 8.066986
66.43862 -22.063387 10.881237
66.273125 -22.159798 11.81076
66.277916 -22.044924 12.427781
66.32235 -21.360888 11.024136
66.17192 -21.41513 11.523893
66.171936 -21.522028 12.36633
66.296776 -21.60715 12.85306
66.424675 -19.982265 -2.6021202
66.34948 -20.525116 11.14387
66.239586 -20.741377 11.538257
66.23244 -20.591942 12.200738
66.45821 -19.511002 -3.022492
66.40892 -19.448378 -2.6261053
66.34671 -20.182318 11.9284315
66.42493 -20.083899 12.067326
66.44823 -19.123583 -2.831401
66.35533 -14.761845 9.558946
66.364426 -14.058476 8.818185
66.258736 -14.351645 9.409981
66.356995 -14.249538 10.245911
66.3178 -13.961108 8.936676
66.12589 -13.758393 9.640929
65.78668 -10.646435 6.1393795
65.44103 -10.9927225 6.5200453
66.03379 -11.251267 8.113826
66.249756 -10.949312 9.8308735
66.14745 -10.977471 10.467485
66.21783 -10.412869 11.481314
66.32196 -10.564531 11.784461
65.133675 -9.190522 5.095265
65.73441 -9.675807 10.275176
65.34305 -8.421323 5.063202
65.37091 -8.307537 10.141868
65.24952 -8.019711 5.0296826
65.45037 -7.5879793 10.325984
65.89928 -6.1452093 5.7492137
65.69201 -6.969181 10.476877
65.64431 -5.6936603 5.9939666
65.70827 -5.849475 10.4273615
65.4091 -4.2644258 9.960495
65.672775 -3.8289032 6.819586
65.35862 -3.670153 9.449734
65.98617 -3.7225065 10.100123
65.90551 -3.3216028 7.211629
65.5799 -3.187397 7.7667923
65.70155 -3.0068414 8.345887
65.8361 -2.9588337 8.950493
66.17146 -3.1980996 9.873166
67.214226 -22.957542 10.502676
66.84949 -22.871265 11.703757
66.91177 -22.852375 12.307682
67.0612 -22.190233 9.975754
66.82013 -22.391619 10.522478
66.5674 -22.514881 11.44677
66.51442 -22.3517 12.530808
66.62716 -22.20639 12.985636
67.32235 -22.101938 13.75152
67.01292 -20.748013 -3.3293147
67.16637 -20.96853 -2.0745938
66.9432 -21.768744 10.078715
66.60028 -21.525175 10.556784
66.59322 -21.48423 13.232865
67.04415 -21.61233 13.8890295
66.81829 -20.341206 -3.4423435
66.665565 -20.368471 -2.468006
66.72622 -20.118658 -1.7245114
67.296875 -20.495369 -1.2549015
66.76422 -20.699093 10.560745
66.55908 -20.6588 13.011029
66.82271 -19.645962 -3.8036969
66.592896 -19.543293 -3.257434
66.49532 -19.873508 -2.4551253
66.6135 -19.403711 -1.5372183
67.26122 -19.849392 -0.8791585
66.80542 -19.95132 10.892623
66.569275 -19.934856 11.546396
66.67398 -19.873775 12.2977295
67.12381 -19.878271 13.103184
67.13332 -18.631226 -3.7350342
66.8348 -18.78802 -3.335164
66.713585 -18.590908 -2.5317595
66.82038 -18.652657 -1.619385
67.109406 -18.695045 -1.1138682
67.41461 -18.541327 4.7386255
67.42222 -18.373667 5.142289
67.25006 -18.130653 -3.201653
67.03366 -18.145744 -2.2911372
67.008934 -18.295326 -1.9547663
67.40379 -17.661102 4.6935334
67.35813 -17.945833 5.109707
66.79712 -15.06046 9.016942
66.683464 -15.111271 9.546119
66.67501 -14.975743 10.533949
67.22109 -15.056168 11.589419
67.30925 -15.052567 11.74522
66.82788 -14.409625 8.344779
66.52222 -14.533401 8.786462
66.523766 -14.183284 10.706669
66.905075 -14.496972 11.209569
67.27219 -14.727701 11.796728
66.50246 -13.819201 8.603914
66.54635 -13.6465645 10.65909
66.90438 -13.825551 11.364448
66.905525 -12.478631 8.946825
66.606674 -10.764997 6.711693
66.42812 -11.2293625 7.4031825
66.49653 -11.691109 8.810302
66.40342 -11.122112 11.664801
66.78197 -11.317814 11.956205
66.3928 -10.217086 6.1745443
66.60601 -10.554093 12.069391
66.66853 -9.498565 5.654275
66.6498 -10.012852 11.9827795
66.281975 -8.757127 5.276561
66.51721 -7.8925977 5.3347783
66.09578 -6.8687053 5.4868107
66.57449 -6.653759 5.6424575
66.40872 -5.589595 5.8429036
67.34065 -5.074208 11.971871
66.48617 -4.722155 6.203858
66.14872 -4.319647 6.4944925
67.14082 -4.50223 11.446465
66.40186 -3.7298687 6.8219204
66.41905 -4.0901937 10.599362
66.33244 -3.2782602 7.187939
66.7222 -2.9663143 7.587726
66.50755 -2.4999862 8.640519
66.46555 -2.544523 9.53737
67.00167 -2.439875 9.900754
67.042915 -3.1674204 10.685178
66.86351 -2.3512495 8.708545
66.985016 -2.271402 9.458587
68.3466 -23.839815 -8.264787
68.35841 -24.126501 -7.3674555
68.04639 -23.644289 10.930157
68.095474 -23.68518 11.698276
68.19672 -23.358568 -8.44985
68.0593 -23.225582 -7.6891823
68.21518 -23.149004 -6.877335
67.637985 -22.982658 9.72875
67.670364 -23.389826 10.409574
67.32852 -23.280859 11.292806
67.25272 -23.101267 12.249264
67.470085 -22.955534 12.90231
68.28755 -23.01076 13.90878
68.159424 -22.401106 -9.075252
68.027824 -22.579933 -8.616556
68.001595 -22.670195 -7.7626567
67.94702 -21.714792 -2.343643
68.17301 -21.739384 -1.6882472
67.3407 -22.481102 13.397979
67.745514 -22.239313 14.21567
68.23906 -21.994747 -9.084509
68.13877 -21.961622 -8.694714
68.25544 -21.75947 -7.9904494
67.62995 -21.376106 -2.7217994
67.46976 -21.152445 -2.0260837
67.791046 -20.897694 -0.88557804
67.89121 -21.639145 9.028
67.43559 -21.460524 9.520177
67.425804 -21.448105 14.268483
68.24033 -20.286636 -0.1352991
68.18502 -19.692709 4.9550104
67.85983 -20.755796 9.437227
67.41673 -19.870094 -4.267687
68.16751 -19.16163 3.7501228
67.76604 -19.09817 4.5405984
67.79509 -19.076937 5.2818933
68.00195 -18.889637 5.8768315
67.82398 -20.191404 9.851781
67.40068 -20.01094 13.753787
68.29744 -19.13736 16.686941
68.45466 -19.099098 17.147446
67.63277 -18.604994 -3.9172492
67.509186 -18.828192 -0.77580243
67.5061 -18.229948 4.083602
67.658775 -18.705742 4.183312
67.60487 -18.51676 5.6318293
67.97035 -18.376596 6.15793
67.75802 -19.24625 12.463957
67.861855 -19.360104 13.273613
68.34869 -18.913834 15.777938
68.37143 -18.83494 16.685183
68.382225 -18.87292 17.026403
67.67674 -18.263824 -3.7847867
67.68741 -17.943832 -3.2663403
67.72254 -17.751768 -2.6159945
67.825516 -17.858183 -1.8126351
68.05293 -17.76778 3.1495647
67.661705 -17.406246 3.8903377
67.546814 -17.324192 4.4074993
67.48384 -17.679365 5.3832717
67.79136 -17.065536 6.3235946
68.000725 -16.910444 3.7154953
67.73347 -16.872952 4.5681586
67.72209 -16.793224 5.418869
67.62244 -15.848986 9.560285
67.77331 -15.818748 11.174319
68.106094 -16.11045 4.519353
68.058174 -15.84926 5.796665
67.46954 -15.424413 11.653914
67.58271 -15.338412 11.785666
67.99727 -14.812744 8.017138
67.67413 -14.645489 12.127774
67.43171 -13.358609 8.254648
67.87488 -13.643637 12.039408
67.79737 -12.441654 8.373204
67.41755 -11.001877 12.396387
67.65552 -9.961559 6.310865
67.68869 -10.122066 6.496063
67.71911 -10.589093 12.597014
67.50506 -8.973824 5.806157
67.4552 -9.261174 12.103671
67.034805 -8.315525 5.508136
67.68681 -8.99897 12.215834
67.12094 -7.5748577 5.579925
68.0684 -7.8960056 12.078593
67.23804 -6.170736 5.850926
67.004234 -5.49722 5.970228
67.50632 -5.1305966 12.398154
68.371025 -5.3209553 13.91007
67.1384 -5.0355496 6.240179
67.17674 -4.507305 6.7275867
67.92738 -4.7199054 13.229231
68.33093 -4.776848 13.957556
67.562256 -3.5059185 7.2050695
68.009995 -3.4342644 11.778781
67.79287 -3.9759264 12.732584
68.21036 -3.8509824 13.418153
68.38966 -4.063516 13.774765
67.55981 -2.6534235 7.9279375
67.3854 -2.7337327 10.6211195
68.00366 -2.8167424 11.152499
67.42879 -2.322638 8.212425
67.62988 -2.1603808 8.74601
67.51574 -2.096493 9.404571
67.92419 -2.1757412 10.154976
68.96606 -24.800022 -8.119893
68.93365 -24.823084 -7.5014544
69.00474 -24.722792 -7.0303617
69.30104 -24.882927 9.453093
69.1349 -24.661325 10.117431
69.33516 -24.711967 16.80848
69.34383 -24.690954 17.100565
[...]
POINT_DATA 8992
SCALARS features_00 float 1
LOOKUP_TABLE default
0.8345746 0.87848467 0.88359594 0.84007394 0.96232885 0.92179966 0.8383194 0.9222076 1.0 0.95326924 0.85973394 0.89431125 0.9738747 0.9673524 0.86444294 0.8086612 0.8448362 0.8393881 0.722437 0.7912915 0.860652 0.8423953 0.7642529 0.7250928 0.77608585 0.7514368 0.71816236 0.78888714 0.70597136 0.79632646 0.8148556 0.825414 0.8654907 0.93703175 0.74389684 0.80317074 0.7840742 0.7045777 0.72846806 0.69401515 0.6760857 0.5194718 0.66263825 0.43321303 0.58670604 0.638697 0.65127516 0.55507404 0.6022999 0.57798564 0.8343953 0.5849388 0.62529624 0.62776077 0.6115628 0.2949132 0.5710313 0.16472363 0.53182584 0.12284669 0.46728945 0.15908794 0.55115396 0.29111487 0.5676795 0.32840228 0.26787677 0.5267804 0.19575201 0.49710506 0.11034438 0.10675131 0.44242388 0.13880873 0.13901399 0.40495938 0.35159183 0.17796274 0.19694552 0.42079085 0.3060534 0.28780162 0.5835015 0.6448264 0.5502326 0.46256807 0.36132395 0.6339747 0.597434 0.48579925 0.6136851 0.5994943 0.6134567 0.59713674 0.6253232 0.6422038 0.63786083 0.59986305 0.7116029 0.6244339 0.6405679 0.6454264 0.73859024 0.75046295 0.6317154 0.62581617 0.76115555 0.5735127 0.45786184 0.53534096 0.5718126 0.46405476 0.50347936 0.3685494 0.39865074 0.19541359 0.13956118 0.24540554 0.31492615 0.3149283 0.43861675 0.14528975 0.3711076 0.110955924 0.3603493 0.15547816 0.28950337 0.19624674 0.3470065 0.24676548 0.39029127 0.5695101 0.49116617 0.39759302 0.5832889 0.6072115 0.59134924 0.55736345 0.45700228 0.5194948 0.536063 0.5053655 0.5635979 0.5685383 0.5801804 0.55442196 0.52272487 0.41435394 0.64395005 0.5563862 0.5784786 0.60104984 0.56853557 0.46127313 0.68602836 0.67430484 0.6875406 0.52774215 0.6000627 0.6341042 0.7171123 0.73053443 0.7224016 0.7762393 0.6306818 0.60435843 0.60648584 0.60439956 0.56826466 0.72955245 0.7572284 0.78373873 0.798481 0.77349436 0.51572764 0.5148525 0.74271965 0.77964944 0.78834057 0.53182685 0.52469397 0.5634054 0.6005055 0.57219636 0.49986875 0.48852152 0.41886044 0.49268162 0.55793464 0.5166032 0.47390896 0.40927374 0.51324487 0.46144098 0.2928899 0.29385933 0.31030238 0.02479744 0.28205532 0.26480016 0.3236398 0.31425375 0.3204586 0.29643714 0.3093999 0.2584116 0.2544086 0.25219998 0.31469482 0.26610398 0.38438836 0.46314076 0.22741646 0.49702746 0.283803 0.5494636 0.54338574 0.56455386 0.515496 0.4901101 0.36784533 0.55149114 0.52344704 0.62196714 0.5790603 0.36833078 0.3441254 0.6684116 0.64016557 0.5761648 0.4825459 0.43971547 0.47657517 0.457471 0.4114635 0.22336729 0.6416303 0.6822817 0.67507976 0.38137686 0.36039963 0.41943657 0.3113466 0.6192336 0.65038633 0.65634143 0.4644958 0.49219924 0.39830503 0.48368114 0.5466296 0.39236018 0.37306157 0.4218232 0.4917896 0.7073909 0.45583546 0.47882634 0.47228765 0.44588748 0.51280856 0.50843793 0.4319081 0.43598247 0.6744055 0.7092264 0.53048235 0.51117283 0.49080402 0.44152567 0.47950968 0.42635542 0.36812738 0.43112236 0.4360235 0.67689204 0.7000665 0.70829964 0.6755553 0.54529583 0.5406532 0.5365522 0.52237695 0.5212253 0.54668856 0.54425466 0.5408925 0.5135697 0.5244916 0.5360913 0.4800429 0.4899392 0.46781898 0.3606774 0.4132843 0.297068 0.32123333 0.22130153 0.2637819 0.23015851 0.22260709 0.26555282 0.2594015 0.25379914 0.2586061 0.21946152 0.23351166 -0.023253314 0.25025314 0.2974086 0.32309392 0.49895906 0.32559985 0.3688274 0.4329912 0.524963 0.42235035 0.3575426 0.398149 0.512962 0.55191326 0.48931378 0.42027652 0.39692488 0.5175745 0.5163246 0.5164509 0.4706837 0.56486297 0.55118144 0.53465533 0.44125897 0.34434852 0.50471425 0.51622725 0.6026292 0.5816023 0.5732125 0.55156463 0.53435534 0.5136522 0.2573037 0.256573 0.1979379 0.43758163 0.48471403 0.49493265 0.49577665 0.6317489 0.5105792 0.385727 0.24906436 0.45939258 0.47630757 0.46332473 0.55545557 0.6021803 0.290542 0.26274425 0.320621 0.32705382 0.30876648 0.13487402 0.40705532 0.5382343 0.5814179 0.6074548 0.45498627 0.32290116 0.2920132 0.15765564 0.38882998 0.23227158 0.54002476 0.5608473 0.28859597 0.16912913 0.22078772 0.28694263 0.31269845 0.3766989 0.32085264 0.4023792 0.36550122 0.52850497 0.3563383 0.33331966 0.5437601 0.4309933 0.41768533 0.57306963 0.5260992 0.52712345 0.21054141 0.529303 0.2915877 0.25258613 0.3434856 0.44035602 0.4331637 0.5357281 0.6226152 0.5967852 0.58541965 0.3865617 0.1237696 0.09240395 0.3167951 0.42269152 0.44940266 0.44152594 0.30338156 0.42469364 0.43595153 0.43307033 0.34109873 0.21654986 0.33448115 0.19756404 0.111807816 -0.003090635 0.38128847 0.40458778 0.45054525 0.4879423 0.048803996 0.16773465 -0.071896136 0.4371251 0.46564272 0.4968483 0.5101931 0.111305185 0.091554455 0.15157409 0.5118958 0.20228095 0.014555328 0.12917584 0.19129804 0.123347044 0.1272293 0.344559 0.47904724 0.58231205 0.6071353 0.31031102 0.5974544 0.6453849 0.57880867 0.6343126 0.69503284 0.4066502 0.44007716 0.5565658 0.6600783 0.7152766 0.44040257 0.43450153 0.40935525 0.4079796 0.60632443 0.48722568 0.5350925 0.528665 0.4805676 0.62026757 0.644516 0.5756099 0.4928559 0.39039797 0.28482518 0.44418877 0.50959057 0.54886806 0.54639107 0.55464894 0.40711707 0.566234 0.5263793 0.21578251 0.41565055 0.5150299 0.4943869 0.16120623 0.47387788 0.46643952 0.4322034 0.46163052 0.33573312 0.21854328 0.28473526 0.32891732 0.31782457 0.29014936 0.25838563 0.3744344 0.46868056 0.25042704 0.17543666 0.18479507 0.20586157 0.24005012 0.10725394 0.47907126 0.44536272 0.39425796 0.21476217 0.20286572 0.2755346 0.4302215 0.30382758 0.040834952 0.52779007 0.39956903 0.33781418 0.2927625 0.17813824 0.26741228 0.37285393 0.13614222 0.1288464 0.2958639 0.026654303 0.1681147 0.29115197 0.3298014 -0.005609922 0.034056082 0.46679997 0.5736666 0.2452379 0.2605882 -0.07519323 0.041513354 0.06268959 0.06937063 0.4662866 0.53872085 -0.1044011 -0.024575904 0.004150301 0.034750912 0.05360406 0.2480256 0.41016302 0.40084407 0.11570732 0.10607831 0.29996824 0.33646995 0.40870714 0.48626858 0.5207037 0.5082786 0.22564471 0.2902943 0.5165459 0.55506974 0.5643815 0.5518133 -0.09785724 0.30945683 0.3261049 0.4401721 0.50382596 0.546895 0.58808887 0.5932077 0.13537772 0.37132835 0.46411538 0.50188017 0.5480951 0.07669801 -0.03202845 0.21017024 -0.00026468933 0.48644745 0.56606996 0.62322855 0.24464488 0.6976281 0.76661384 0.7542677 0.3328354 0.70107186 0.7766385 0.3156207 0.31965563 0.37324914 0.46449015 0.6716941 0.6863853 0.6392501 0.53237927 0.45588845 0.5714654 0.5982058 0.59550905 0.46454263 0.38456315 0.39163044 0.34368357 0.66659194 0.666276 0.3661179 0.29429668 0.4262109 0.5320275 0.5523753 0.53349257 0.70414245 0.67197657 0.6156312 0.4929415 0.3705681 0.300273 0.2726365 0.61226857 0.56912076 0.17816879 0.14517657 0.46697104 0.4722584 0.6981156 0.65010697 0.32901782 0.45619547 0.4241199 0.42050126 0.6718907 0.60235095 0.475428 0.109803826 0.21257897 0.34044158 0.35243344 0.336091 0.4375978 0.31887048 0.57465935 0.4619279 0.2836544 0.22929661 0.116840854 0.5840262 0.55122083 0.103807196 -0.007851098 0.045952894 0.19873124 0.085305646 0.17686427 0.18198189 -0.12036925 0.31065774 0.14649121 0.17822438 -0.10252288 0.37084934 0.48179856 0.5652189 0.6049625 0.14280087 0.08553555 -0.07930143 -0.14396808 -0.07891368 0.04031506 0.06459365 0.059882786 0.35987186 0.50751483 0.590774 0.6249528 0.08678337 0.1029993 -0.08336447 0.0728979 0.04935348 0.35978687 0.5853213 0.6151194 0.62844694 0.30407208 0.36414912 0.45523578 0.5179648 0.53942424 0.08468507 0.43384215 0.51312214 -0.13458763 0.5773307 0.58602804 0.555259 -0.0673728 0.13597375 0.3242754 0.35296598 0.48537296 0.52087265 0.54881835 -0.24624917 0.24158499 0.28326225 -0.054836147 0.0028972924 0.6521218 0.71396744 0.2408309 0.7643593 0.7727958 0.22114728 0.69709426 0.767109 0.25965765 0.24757041 0.34666303 0.52607495 0.6761321 0.33778584 0.33357495 0.71178776 0.72933245 0.69198155 0.5352679 0.47538996 0.500038 0.57239556 0.60972834 0.60778403 0.6668533 0.6045131 0.34242266 0.32902062 0.33111858 0.66026133 0.6807138 0.40956557 0.3408975 0.7123679 0.6963011 0.30032158 0.2703145 0.6101978 0.24315178 0.14483804 0.4627157 0.7212986 0.36829334 0.72571284 0.15387517 0.29736918 0.3168583 0.34016138 0.20641227 0.65341854 0.60061955 0.19715817 0.011343986 0.6445773 0.630084 0.5760207 0.23489162 0.62633574 0.5968298 0.4716562 -0.044643793 0.005735021 0.065767184 0.04084167 0.053720236 0.09703212 -0.013368174 0.07367727 0.05973271 0.09711559 0.16505855 -0.48977715 -0.12911087 -0.11821705 0.3422107 0.41687804 0.54773724 0.57392013 0.047593236 0.07357128 -0.045466047 0.042179257 0.39043176 0.5395661 0.60974807 0.6528883 0.06838858 0.048883192 -0.19525164 0.6309861 0.6424228 0.09632723 0.62185454 0.15484649 0.16244385 0.46965438 0.16357318 0.02702181 0.423701 0.39642107 -0.20234516 0.44825593 0.4394094 -0.12565383 0.5243228 0.51466876 -0.03637465 0.31466627 0.37017417 0.42153358 0.5289358 -4.608929e-05 0.13424331 0.18637206 0.27605253 0.3713967 0.08888794 0.43203408 0.47473702 0.45681596 0.53880715 0.59098846 0.5128882 0.75334716 0.7351568 0.1837658 0.1588071 0.12741236 0.1461849 0.3425752 0.47543615 0.64373726 0.72975147 0.17706639 0.28749824 0.31295526 0.31593984 0.3224594 0.66612613 0.6815394 0.64480424 0.5662782 0.35960788 0.39990968 0.5702791 0.610394 0.6327857 0.57298934 0.39287812 0.31540713 0.30977646 0.29938322 0.584363 0.64296186 0.43199065 0.2257193 0.3658271 0.5880693 0.68119633 0.30086213 0.2713232 0.26496843 0.5853226 0.57696605 0.23403901 0.0816891 0.7248117 0.22608599 0.20840448 0.26495922 0.7394089 0.24708879 0.19488257 0.40026695 0.7192707 0.15874113 0.6626266 -0.042721555 0.65698636 0.6368562 0.5536517 0.44067568 0.050513208 -0.06966606 0.022258855 0.073715106 0.09724552 0.13764657 0.24877954 0.04178914 0.010895718 0.026122285 -0.07099341 0.13311726 0.36008963 0.593138 0.6637802 0.7586874 -0.0002586171 -0.02193378 0.6694863 0.75274837 0.7836251 0.68468016 0.2380208 0.43776828 0.26192516 0.4004019 0.48191965 0.46835917 0.50733936 0.30366576 0.34960738 0.48095834 -0.058905676 0.04280626 0.16529419 0.20016533 0.243497 0.5623865 0.4737836 -0.020841077 0.60448265 0.16756439 0.62330335 0.04854445 0.61873174 0.59103006 -0.3124421 0.5834482 0.32723978 0.5730711 0.24782008 0.14318977 0.11008507 0.23939049 0.6457548 0.6655646 0.8062122 0.8419281 0.4239321 0.5555904 0.61966914 0.80585295 0.30613542 0.3144377 0.62434375 0.61894554 0.25948477 0.31880555 0.20551664 0.499353 0.63178194 0.5938834 0.45366418 0.28857535 0.3088289 0.30735978 0.5839703 0.5995187 0.57272303 0.5381759 0.4456627 0.20638013 0.4202249 0.6379745 0.6023796 0.24846056 0.46016175 0.5166103 -0.029081821 0.6507288 0.20198864 0.17336208 0.26293898 0.0041778237 -0.14593676 0.10686843 0.67623067 0.06941551 0.020539213 0.116821006 0.16789037 0.16317591 0.16690326 0.22772726 -0.118400715 -0.20375948 0.12605903 0.7037219 0.1388314 -0.007990085 -0.17964865 -0.2858366 -0.32093823 0.09226312 0.6888181 0.60122067 0.51897866 0.2594698 0.18333095 0.09035608 -0.056113757 -0.017981164 0.16048202 0.31160784 0.46031246 0.62502766 0.07888977 0.06634525 -0.025826082 -0.06999699 -0.041072097 -0.07343177 0.6838044 0.7680953 0.8146354 -0.11386279 0.8480804 0.8572136 0.24703121 0.78733027 0.28790915 0.25771478 0.4786333 0.45233727 -0.1597588 0.517528 0.01627405 0.2365942 0.3048424 0.40458715 0.43186852 -0.12605077 0.21350181 0.63925934 0.116285175 0.65467536 -0.09587558 0.04572372 0.12444855 0.64057726 -0.022302143 0.05647312 0.6354053 0.62763435 0.07025772 0.6064868 0.55807793 0.3254487 0.15305205 0.14160743 0.21679167 0.18861131 0.8526716 0.6492814 0.72880244 0.82366735 0.882372 0.9159967 0.5902738 0.6136068 0.87851804 0.9352795 0.82268536 0.9011208 0.20200898 0.20709506 0.59634835 0.7245056 0.25406504 0.27406538 0.55333865 0.57075614 0.55680394 0.15527979 0.43535066 0.53526336 0.49185902 0.49200746 0.53022015 0.51073873 0.11218744 0.46917018 0.59220994 0.16266558 0.16189064 0.40522814 0.39617494 -0.19825336 0.08344576 0.10948192 0.14471447 0.15144047 0.27275354 0.100309595 -0.21647392 -0.19956908 0.02577052 0.6154548 0.5624403 0.13304059 0.14675121 0.12600198 0.008278903 -0.27133107 -0.024748199 0.52199125 -0.010110579 -0.53599465 -0.3164832 -0.21179917 0.27847788 -0.058297303 -0.07905994 0.22913718 0.15709588 0.06264083 -0.21238968 0.32889584 0.41482782 0.5417206 0.05755956 -0.013633363 -0.05960606 -0.15185781 -0.14874789 0.7408058 0.7910116 -0.18581828 0.79454976 -0.08599636 0.6544698 0.74039316 0.425461 0.57079214 0.66723996 0.22722776 0.17333452 0.28387755 0.12530239 -0.18038253 0.4760914 -0.24435945 0.46642354 -0.2162268 0.15026677 0.24822769 0.35161564 0.22685033 -0.10967235 -0.19255099 -0.069534205 0.47915626 0.46487626 -0.01011496 0.5814776 0.060786687 0.60984075 0.27847025 0.6357368 0.24255626 0.27996218 0.6379709 0.6227195 0.086941645 0.2556882 0.41068733 0.60589373 0.55942166 0.4753614 0.22235161 0.25350463 0.21466106 0.23200983 0.25074935 0.78211355 0.8412806 0.87965125 0.595858 0.65586376 0.7671069 0.89750266 0.93940884 0.515901 0.9743643 0.35098612 0.94918895 0.20304659 0.65602285 0.823754 0.119049855 0.41290736 0.21602398 0.19573155 0.22793084 0.06243221 0.39203823 0.022476926 0.026968418 0.11263498 0.46307084 -0.11831495 0.13745072 0.54064864 0.092307106 0.03373708 0.25887358 0.28975546 -0.22555602 -0.048643053 0.2820178 0.043887686 0.11182093 0.10884541 0.11696924 0.117449224 0.25631785 -0.29295385 0.22295421 0.08262675 0.013767682 -0.20114577 0.19538222 -0.4506511 -0.11078128 0.29087964 0.040723845 -0.15729481 0.091109894 -0.08351149 0.030981038 0.057131156 0.24229681 0.38439864 0.06459034 -0.7459415 0.4669726 0.651279 0.7025591 0.18099111 0.098669544 0.111742325 0.08692241 0.09361169 0.07651201 -0.0849684 0.6001866 0.67529774 0.7024423 0.07736546 0.3824278 0.49498063 0.6157356 0.6818917 0.15309367 0.24286085 0.39626342 0.5317316 0.17684537 -0.044136524 0.34538296 0.38777345 -0.26292464 0.34919 -0.27510098 0.019796811 0.2633429 -0.2688698 -0.21814926 0.13940802 0.36792922 0.23293105 0.56437355 0.5140624 0.33333004 0.62297094 0.58235073 0.37506324 0.6161795 0.6050895 0.53645957 0.4719953 0.499251 0.59496653 0.56164473 0.22488283 0.20593852 0.34652126 0.49544266 0.5534276 0.5533309 0.2355162 0.24578246 0.5731913 0.74935704 0.85916615 0.8899856 0.5595389 0.6226334 0.7273146 0.8689703 0.9061252 0.9219903 0.48745477 0.90867865 0.29865542 0.3491251 0.8698499 0.18666187 0.59184515 0.7454824 0.106373675 0.16491735 0.42976955 0.047693927 0.24425095 0.17716008 -0.19613148 0.08865455 0.009386288 0.2251334 -0.27874523 0.012849823 -0.027918309 0.04401373 0.07556234 -0.036108907 0.039626244 0.13243516 -0.2786107 -0.18109632 -0.01895696 0.036227185 0.0044410713 -0.03420371 -0.18923372 -0.25688517 -0.46217877 -0.43939066 -0.1347766 -0.22031112 -0.021588624 -0.12209658 -0.009887718 0.20928115 0.05371967 0.1881803 0.48519337 0.18047085 0.20759356 0.20533606 -0.0635445 -0.13500443 0.24925563 0.40655082 0.53406763 0.13553137 0.13942575 0.17694731 0.15704419 0.020436443 0.31535813 0.37304506 0.24688947 0.17269173 0.12912121 0.3338185 0.2411905 0.05882744 0.088520445 -0.039661154 -0.28034306 -0.067291826 -0.36022407 0.0482022 -0.21627805 -0.32467756 -0.13566999 -0.12356041 -0.106167585 -0.09475935 -0.12318584 0.26298463 0.22966668 0.3677845 0.32890636 0.32355586 0.5016482 0.41720656 0.2091597 0.53472906 0.4939714 0.14587311 0.14377128 0.25103104 0.6043144 0.6109343 0.43272185 0.56764305 0.63877404 0.61268693 0.75536096 0.845436 0.8574827 0.87568665 0.45884347 0.54136616 0.8188393 0.8308699 0.35289025 0.41760677 0.7591536 0.75947523 0.2587651 0.59824824 0.3038628 0.4103174 0.08444001 0.10016168 0.20774257 0.2278414 0.40532503 0.46075696 0.45468858 0.40722367 0.00096972473 0.15239516 0.40681583 0.20965177 0.31083417 0.41965896 0.44291225 0.32282725 0.20524786 -0.17992844 0.15755336 0.21322376 0.18375471 0.068953976 -0.20289879 -0.11613341 -0.024687767 0.08297269 0.1823425 0.0007007569 -0.06104958 0.013843462 0.036937464 0.05483696 -0.035405416 -0.28170285 -0.27562562 -0.2179448 -0.014705181 -0.020578127 -0.1651977 -0.056801982 -0.33375114 -0.4635015 -0.13927312 -0.25746942 -0.22724524 -0.13195178 0.12885125 0.19556504 0.2147438 -0.14615116 0.1587375 0.17619085 0.13160735 0.10054112 -0.26223284 0.13633472 0.2228414 -0.3320886 0.22228023 0.24494831 0.20254926 -0.045175016 0.15828557 -0.019629791 0.102646135 0.09873262 0.21533336 0.21863745 0.48446578 0.37980938 0.29559988 0.37010458 0.5177665 0.42486376 0.25190306 -0.107480906 -0.084383614 -0.060793385 0.34048703 0.58739746 -0.13625659 -0.25280708 0.5563357 -0.34907907 0.16494496 0.20803991 -0.3284964 0.31986284 0.20727313 0.41781628 0.3268476 0.19630015 0.53131664 -0.024209326 0.07074948 0.6605053 0.60370684 0.21162091 0.3642285 0.52347267 0.6549067 0.71678317 0.71805674 0.76671565 0.33448297 0.3922278 0.45698225 0.5591367 0.6947301 0.75691104 0.21294497 0.419784 0.36471653 0.35244122 0.37459064 0.374857 0.089172855 0.19986704 0.15107907 0.21513796 0.23796743 0.32149935 0.34508502 0.28553462 -0.11852865 -0.13276112 -0.057061795 0.20334974 0.18866582 0.2324728 0.1765117 0.18833585 0.06055344 -0.14996397 -0.106054395 -0.052635804 0.50168777 -0.122272864 -0.14262675 0.24360257 0.4491599 0.14280465 0.19285314 0.2259585 0.14958811 0.12056069 0.011025086 -0.17348807 -0.25913915 0.0029618032 0.6287429 -0.16373065 -0.11725383 -0.099366724 -0.13619564 0.039849006 0.36877352 -0.17062753 0.50290626 0.37667078 0.28282622 0.20731896 -0.043725803 -0.17897421 -0.22716457 -0.12906075 0.30650213 0.16257665 0.0020874706 0.0730382 -0.15902661 0.02665723 0.07895537 -0.3033045 0.030088503 0.050516717 -0.20982146 0.10632797 0.17731568 -0.068068564 -0.02334679 0.14692123 0.1379582 0.14958663 -0.017154083 0.23236048 0.31739867 0.38947535 0.28722072 0.38265434 0.37187394 0.51063985 0.49926078 0.38273188 0.4079903 0.49622887 0.5208844 0.56706864 0.46724546 0.52475405 0.5923783 0.5975152 -0.22224975 0.38095877 0.4415102 0.505074 0.539363 0.56260216 0.34009287 0.18538898 0.32069343 0.24270399 0.36807698 0.35596624 0.53895026 0.3909629 0.30692464 0.15087378 0.078653075 0.18689243 0.4179855 0.5377563 0.60067135 0.081545144 0.345706 0.46123278 0.60536873 0.56036973 0.56765926 0.5329282 0.2285439 0.5022562 0.4971955 0.46293843 0.30349532 0.27518398 0.2659515 0.3039241 0.31355992 0.2561038 -0.15587915 0.14072803 0.6142629 0.5346277 0.18940371 0.26815304 0.12012859 0.19015905 0.45155108 0.43250102 0.35523593 0.18598342 0.40099725 0.24193949 0.18154833 -0.008359 -0.014501981 -0.09162512 0.44331932 0.472858 0.55609536 0.4760059 0.2366756 0.24004167 0.60901994 0.07513986 0.20248649 0.21310271 0.18511093 0.14625676 0.7261659 -0.114147976 0.009022132 0.7242591 0.67310774 0.03255666 0.67810893 0.4465722 -0.05976246 0.055490952 0.6665466 0.54904234 0.44397855 0.33777735 0.31089652 0.26582065 -0.027158003 0.44489568 0.4492681 0.38167775 0.25158513 -0.08590105 -0.1902065 -0.12719321 -0.15244009 -0.18327895 0.0102038095 0.024115603 0.010521589 0.040830728 0.13181219 0.158246 0.32211626 0.40853986 0.46902427 0.42980218 0.51849866 0.52882814 0.43254155 0.52237344 0.5511009 0.5189364 -0.3282732 -0.072584525 0.19473776 0.3386917 0.54641694 0.54902536 0.49215227 0.48170963 0.43186364 -0.2693155 0.25712997 0.3762146 0.45748317 0.50304353 -0.23770387 0.23788074 0.20069121 0.38736832 0.28746307 0.32011643 0.31730267 0.38325968 0.49168128 0.3597041 0.36310324 0.23010123 0.15403202 0.0860682 0.33451098 0.45811588 0.2958992 0.21551329 0.16737424 0.60793555 0.5898403 0.61801547 0.6018493 0.5493245 0.4287458 0.21111019 0.28140014 0.30610907 0.60117257 0.6326086 0.6601953 0.6810114 0.5922042 0.56534064 0.2821197 0.2848281 0.23643413 0.36542386 0.6370609 0.6255164 0.13356811 0.5037068 0.0409851 -0.048057035 -0.05262257 0.08762455 0.5924455 0.08267273 0.43199146 0.3296965 0.52349067 0.55686337 0.43970138 0.31889713 0.0598956 0.38926238 0.4211982 0.65930307 0.61175346 -0.034280986 0.15841684 0.21168324 0.16119514 -0.11097071 0.34904706 0.70599973 -0.32363445 -0.1421282 -0.010575548 0.71374315 -0.0440578 0.0032376796 0.7016034 0.1973437 -0.02219177 0.73459446 0.7405547 0.5512421 0.27123103 -0.09909012 0.7620741 0.777