# vtk DataFile Version 2.0
Really cool data
ASCII
DATASET POLYDATA
POINTS 9030 float
41.315414 -6.87735 -26.004087
41.387424 -6.9267507 -25.622852
41.410267 -6.8716145 -24.864138
41.396183 -6.2151117 -26.9716
41.247154 -6.3796935 -26.409386
41.14875 -6.442723 -25.70665
41.341602 -6.489077 -24.852705
41.389034 -5.5522985 -26.803455
41.21385 -5.6699862 -26.21275
41.179016 -5.6277094 -25.674997
41.310974 -5.8147154 -25.040741
41.34156 -5.1256676 -25.818924
41.251404 -1.8618928 -24.636326
41.213715 -0.7522745 -29.180513
41.111183 -1.2895031 -24.275917
41.19238 -1.3493959 -23.664055
41.37747 -1.217486 -23.21696
40.738407 -0.034040347 -29.277071
40.758717 -0.2274875 -28.724674
41.352776 -0.7190366 -25.367067
41.152584 -0.65718055 -24.318155
41.207924 -0.73841506 -23.657421
41.176037 0.5238885 -30.390537
40.645233 0.67845064 -29.229744
40.64953 0.42297596 -28.609444
40.870964 0.39859346 -28.015833
41.354755 -0.09636901 -24.246424
41.35456 -0.099247605 -23.879333
41.143784 1.3172398 -30.22095
40.827827 1.5001986 -29.329441
40.71844 1.1964977 -28.679045
41.161716 1.4929677 -27.858412
41.179348 2.0702982 -29.890053
41.07691 2.400747 -29.21484
41.15552 2.5879743 -28.50391
41.244595 2.414091 -27.99485
41.321613 2.9561415 -29.300268
41.328358 3.102367 -28.58306
41.34043 2.9720223 -28.122002
42.336273 -7.9408956 -27.154016
42.165947 -7.8728237 -26.688616
42.171165 -7.865081 -24.98856
42.26557 -7.8990197 -23.424461
42.285435 -7.1632285 -27.78807
41.911697 -7.220373 -26.969429
41.637875 -7.130164 -26.429098
41.601467 -7.240532 -25.432991
41.765213 -7.353107 -24.469397
42.057617 -7.61858 -23.751156
42.427166 -7.614592 -22.560495
42.26302 -6.1765137 -28.250925
41.63607 -6.04395 -27.107073
41.49666 -6.764611 -26.5519
41.817142 -6.3745384 -23.68144
42.07559 -4.9716425 -29.865723
41.843384 -4.9723077 -29.305372
41.76606 -5.1337395 -27.403137
41.603176 -5.7719994 -24.32374
41.839516 -5.6717367 -23.734632
42.30409 -5.74074 -22.982557
42.072098 -4.394753 -30.22774
41.726425 -4.4828997 -29.440851
41.689816 -4.361144 -28.897842
42.087673 -4.377468 -27.831636
41.50407 -4.838854 -25.446037
41.74076 -4.8446703 -25.08304
42.120697 -4.848683 -23.423265
42.22184 -3.4719253 -30.475683
41.715435 -3.8466165 -29.334583
42.070595 -3.3210948 -23.44205
42.00126 -2.8695388 -23.00901
42.335945 -3.0756803 -30.097017
42.380604 -2.84448 -25.851448
42.131344 -2.691716 -25.499763
41.841736 -2.5608246 -24.393393
41.829456 -2.5987327 -23.161777
42.121956 -2.6766663 -22.452303
42.00104 -0.855615 -28.098457
41.44046 -1.2441977 -25.498806
41.75776 -1.4787449 -22.835314
42.1606 -0.10418816 -31.157225
41.4566 -0.38005304 -30.142818
41.81503 -0.23620835 -26.007723
41.57087 -0.23652428 -23.32379
41.730106 -0.6777611 -22.998976
41.837723 0.6081522 -31.15559
41.74046 0.46093878 -26.851864
41.99544 0.579316 -24.981852
41.559933 0.19542634 -24.54457
41.721962 0.19339564 -23.704704
41.799255 -0.12871653 -23.210922
41.86507 1.4484282 -31.064474
41.439327 1.2121655 -30.680319
41.392662 1.4524524 -27.664984
42.17993 0.6941251 -24.117188
41.959614 2.2249043 -30.857077
41.711594 2.4511607 -30.446232
41.445248 2.3077374 -27.673454
41.803288 2.4341593 -27.309013
42.059055 3.3138406 -30.35827
42.10939 3.7503808 -29.775536
41.487137 3.3301241 -28.642086
41.73176 3.2266824 -27.782835
42.149277 3.8685179 -30.033754
41.992752 4.1310062 -29.328033
42.11717 4.285442 -28.571827
42.213974 3.8148942 -27.731457
42.427727 4.955961 -29.236073
42.40155 5.06055 -28.843136
43.24507 -9.842358 -22.883762
43.038193 -9.97707 -22.267998
43.064476 -10.211444 -21.470972
43.31254 -10.393567 -20.692598
43.072678 -8.551608 -27.053812
43.020077 -9.719857 -22.786661
42.762077 -9.508833 -22.29828
42.789635 -9.465975 -21.529146
43.302723 -9.596745 -20.394665
43.30702 -9.6077 -20.216608
42.782875 -8.16762 -27.296507
42.8893 -8.436827 -26.581036
42.62971 -8.169277 -25.65714
42.68409 -8.191451 -24.338224
42.68986 -8.824529 -22.943472
42.590576 -8.837857 -22.342678
42.60259 -8.7423115 -21.677681
43.033257 -8.493401 -20.883793
42.792477 -7.2775087 -28.074179
42.59467 -7.7276187 -27.620087
42.561546 -7.370555 -22.506893
42.923927 -7.744625 -21.953327
42.731182 -5.7813406 -29.360947
42.408524 -6.062042 -28.279007
43.015358 -6.284956 -21.540562
43.125385 -6.024637 -20.575413
43.383713 -5.869361 -19.670797
42.91306 -4.8898287 -30.881021
42.810715 -5.1615353 -30.428568
42.39352 -5.391138 -29.49948
42.84429 -5.245471 -22.484926
43.245773 -5.1025023 -21.6402
43.05169 -5.49126 -20.346931
43.26698 -5.420942 -19.772137
42.825752 -4.3272476 -31.116354
43.203182 -4.828521 -20.522604
43.33252 -4.8894978 -19.81091
43.156914 -3.5929356 -31.62763
42.65622 -3.4593081 -31.185118
42.790718 -3.34212 -21.759726
42.724567 -2.9495053 -31.13154
42.49932 -2.823131 -30.603487
42.687943 -2.1833682 -27.789637
42.53257 -2.1209517 -22.006363
42.566498 -1.7895452 -29.276594
42.341057 -1.1289946 -22.437891
42.807735 -1.5701866 -22.018854
42.35481 -0.23449251 -31.245998
42.706295 -0.2360739 -22.65861
42.676655 -0.9094916 -22.331203
42.27033 0.59287596 -31.432808
42.627514 0.22605178 -22.97243
42.49979 1.0131626 -31.588352
42.48785 1.655401 -31.443985
42.63816 0.8768997 -24.61876
42.73658 0.7212795 -23.554754
43.13824 2.285152 -31.562748
42.593502 2.5411007 -31.218695
43.1129 2.5831091 -26.69033
42.695244 3.3540769 -31.09457
42.505497 3.2584093 -27.272844
43.049824 4.255843 -30.888655
42.606842 4.342232 -30.206934
42.560066 4.7778873 -28.225283
42.493797 4.1156306 -27.683514
43.27232 4.035317 -27.213839
42.680782 4.988196 -29.927265
42.590973 5.1900377 -29.237299
42.687607 5.3590636 -28.579142
43.020638 5.8356023 -29.320278
43.079998 5.8829513 -28.546772
43.28069 5.8715897 -28.118677
44.202137 -11.6905365 -21.421543
44.13345 -11.642606 -20.587328
43.87924 -11.11004 -21.943308
43.82746 -11.231362 -21.429161
43.836685 -11.31757 -20.440672
43.99423 -11.224973 -19.806265
43.46265 -9.840295 -22.963465
43.386425 -10.549473 -21.753977
43.47706 -10.778031 -20.534197
43.773773 -10.727525 -19.703754
43.88154 -10.460399 -19.306908
43.59094 -8.589788 -27.118761
43.572384 -8.662913 -26.484283
44.033096 -8.650715 -25.081905
43.573036 -8.884002 -23.820864
43.96465 -9.314452 -23.389923
43.56306 -9.716268 -19.866903
44.03385 -9.902132 -19.183632
43.59247 -8.147589 -27.862757
43.397106 -8.413873 -27.410934
43.343044 -8.497091 -25.466425
44.196537 -8.067036 -19.539963
43.918385 -7.020366 -28.853025
43.51998 -7.316454 -28.378223
43.50681 -7.7113867 -20.527096
44.030846 -6.767889 -14.417764
44.20476 -6.897567 -13.592172
44.335007 -6.841482 -13.113178
43.46224 -5.5801 -30.470797
43.922207 -5.9814053 -29.347603
43.430363 -6.611403 -20.126154
43.996407 -6.389342 -19.256035
44.166924 -6.4299293 -15.001721
43.838436 -6.3038573 -14.278184
43.925682 -6.4307 -13.62658
44.19785 -6.3919997 -12.9718275
43.722946 -5.097528 -31.242132
43.364155 -5.5052824 -30.572285
43.436146 -5.6105165 -19.454367
43.696686 -5.510198 -19.202278
43.87506 -5.5739517 -14.936555
43.71122 -5.570955 -14.460429
43.73589 -5.5294714 -13.646745
44.128864 -5.5839963 -12.965699
43.57306 -4.2986913 -31.66913
43.464054 -4.6707664 -31.494558
43.772938 -4.490963 -19.461338
43.70146 -4.9084444 -19.179245
43.933113 -4.8016567 -14.229345
44.035378 -4.7731085 -13.619818
44.37435 -4.5789976 -13.150008
43.373493 -3.7114465 -31.679781
43.53334 -4.283169 -20.468842
44.052128 -4.1943655 -19.655321
44.311584 -4.2493057 -14.056741
44.37738 -4.14351 -13.818531
43.689354 -2.9195194 -31.71591
43.877556 -2.6628232 -21.257845
43.7013 -1.8794211 -31.200388
43.692 -1.6270007 -21.618458
43.186234 -0.90761805 -22.069717
43.540424 0.5028448 -31.70525
43.390446 0.12696782 -22.828093
43.3573 1.2949553 -31.745195
43.45139 1.129039 -24.870089
43.45356 2.7779944 -26.56837
43.83848 2.0753171 -26.377563
44.04597 3.7386708 -31.65492
44.10449 3.5376294 -26.62794
43.44293 4.4720354 -30.916681
43.81139 4.697248 -26.814526
43.953617 5.477513 -26.837053
44.04014 6.1473403 -30.27655
43.527718 6.3272657 -29.071424
43.543846 6.259714 -28.59507
43.77557 5.9965067 -27.50431
44.26319 6.464477 -27.058952
44.47779 7.698647 -31.897442
44.402283 7.750074 -31.347847
44.45224 8.250909 -31.343561
44.49041 8.233684 -31.036987
44.757042 -11.737814 -21.929317
44.693874 -11.942907 -21.36268
44.65847 -11.952026 -20.6808
44.682518 -11.67191 -19.657906
44.59731 -11.335951 -22.26446
44.36984 -11.437982 -19.638401
44.649937 -11.112864 -19.028122
44.59279 -10.035517 -23.028477
44.74808 -10.410195 -18.554726
44.2305 -8.642126 -27.085657
44.682533 -8.715488 -26.360281
44.59775 -8.968143 -24.455196
44.672394 -9.59088 -23.24522
44.434044 -9.767398 -18.730045
45.095615 -9.447005 -17.820276
44.559017 -8.200593 -27.710684
44.368183 -8.44591 -27.194479
44.73476 -8.242789 -18.900364
44.97104 -6.659235 -29.17788
44.49435 -7.583167 -28.220654
44.776672 -6.947224 -15.095594
44.524036 -7.171964 -14.301934
44.643448 -7.2138743 -13.512224
44.74346 -6.9673386 -12.872952
44.632217 -5.7777286 -30.345032
44.559032 -6.6002855 -29.247448
44.40639 -6.233297 -19.185896
44.72169 -6.415947 -15.419046
44.650013 -6.5516915 -12.588988
44.91659 -6.189076 -12.301652
44.516335 -5.1253333 -31.349731
45.11513 -5.3766375 -18.570776
44.623604 -5.27934 -15.448659
44.579716 -5.5350623 -12.542785
45.001663 -5.387843 -12.222361
44.36094 -4.569888 -31.67112
44.79432 -4.5879874 -18.854216
44.57292 -4.71103 -15.136854
44.4069 -4.369724 -14.672096
44.90403 -4.240569 -12.499631
45.064472 -4.5205917 -12.216891
44.72966 -3.5904715 -31.787521
45.107162 -3.5594409 -20.194874
44.4177 -4.1030684 -19.5249
44.95566 -3.909917 -14.888396
44.906086 -3.7472153 -14.2494545
44.712032 -3.7991836 -13.678416
44.96789 -3.8508058 -12.71315
44.17327 -2.3382967 -31.756094
44.49703 -2.640463 -20.942743
44.947124 -3.3802018 -20.195421
45.232155 -3.2648578 -13.230313
45.20897 -1.0110272 -32.791138
44.42244 -1.8206373 -21.4158
45.368645 -0.8579203 -32.961517
44.399372 -0.49577123 -22.342585
45.286324 0.8813169 -33.08433
44.592403 0.36946404 -23.438147
44.4368 -0.30512837 -22.682358
44.791153 1.2648343 -32.464706
[...]
POINT_DATA 9030
SCALARS features_00 float 1
LOOKUP_TABLE default
0.46837866 0.46515107 0.43849778 0.43436784 0.45864707 0.46350926 0.43576604 0.4120345 0.4416954 0.4454335 0.43128672 0.40994102 0.4936591 0.50048935 0.55020833 0.55221385 0.5463085 0.58306736 0.5403804 0.48710954 0.5631528 0.5687115 0.5376977 0.5750271 0.5291859 0.4369759 0.5707042 0.5757048 0.51306015 0.53287494 0.50737756 0.41338003 0.48426932 0.47273877 0.44490427 0.43146795 0.43962812 0.42761323 0.42289472 0.48384362 0.48171836 0.41051945 0.29186553 0.43320057 0.45960712 0.46650815 0.45593378 0.40316314 0.3256471 0.22972146 0.33721542 0.41747952 0.45982832 0.30702472 0.4372156 0.38079363 0.33530664 0.36357063 0.26380965 0.15395172 0.5038153 0.42387354 0.34875834 0.22570169 0.35859606 0.32462013 0.08595701 0.50315166 0.4116513 0.24362671 0.37518603 0.43193752 0.10483196 0.23520955 0.39687657 0.4394524 0.4032004 0.30327725 0.4358861 0.5181123 0.39750838 0.51483023 0.35745972 0.5636648 0.54277647 0.42815036 0.19262475 0.52755266 0.56120944 0.5691494 0.55460525 0.41065642 0.46439165 0.38563186 0.55996615 0.39937627 0.42291793 0.41081804 0.37581885 0.388905 0.38792366 0.42088342 0.4039725 0.37774548 0.391164 0.39435872 0.38447163 0.37147033 0.375023 0.44830644 0.501382 0.54258454 0.5530653 0.46238288 0.44921774 0.45162416 0.47558877 0.45726752 0.44601238 0.48088866 0.4620287 0.4387495 0.3056342 0.35480416 0.3778331 0.38659343 0.32089 0.43575612 0.47312415 0.20640928 0.23295476 0.33550784 0.3320275 0.17814183 0.283621 0.3599215 0.50151604 0.46394357 0.37433517 0.08301853 0.19136477 0.3410372 0.3841527 0.52560866 0.3479351 0.39482218 0.49812055 0.51782125 0.22349095 0.4767746 0.44613707 -0.021519374 0.4027114 0.17631151 0.4759286 0.391904 0.3510183 0.48215377 0.44787312 0.37978122 0.51440585 0.34938553 0.350033 0.5362177 0.5353769 0.2650218 0.34014097 0.18499865 0.33673495 0.33268484 0.32611525 0.35160702 0.36200345 0.36303222 0.2570377 0.3409589 0.3613137 0.35549146 0.33163062 0.32493407 0.30902272 0.6652863 0.64412665 0.6066788 0.6310206 0.6117893 0.55772114 0.4345997 0.5646455 0.57497674 0.51748 0.47210544 0.42530346 0.4060731 0.258282 0.23871669 0.29573512 0.43043953 0.40633062 0.4237079 0.4451471 0.3672287 0.15747394 0.2577688 0.37500614 0.18669604 0.8414301 0.81759274 0.7940735 0.3977681 0.23639871 0.2586606 0.29721826 0.8475925 0.875481 0.84614205 0.79590654 0.4597078 0.41955486 0.3884776 0.40083277 0.88150287 0.89453745 0.8756557 0.80000913 0.48521787 0.49336648 0.37864217 0.4092341 0.77293885 0.76671314 0.72518855 0.486705 0.3219309 0.3180232 0.68421483 0.67819536 0.4117425 0.09738557 0.24872574 0.2735603 0.38647205 0.18840255 0.4437732 0.23498122 0.33052272 0.10781258 -0.086817965 0.2106807 0.058136262 0.3053045 0.2220712 0.2666402 0.23340696 0.29631427 0.28723812 0.27643794 0.21636967 0.55777776 0.48492527 0.59443164 0.5562007 0.6243559 0.6728953 0.6684078 0.55605143 0.5855201 0.55076635 0.46532312 0.38580716 0.3990769 0.37001735 0.30789012 0.15767965 0.28469726 0.36095154 0.31307304 0.34673947 0.3638989 0.1525704 0.15076992 0.30039066 0.78618324 0.80512667 0.7799012 0.7547059 0.24325505 0.1630561 0.30838352 0.79796755 0.74940515 0.7008778 0.3964249 0.32247257 0.7542248 0.7327614 0.6692586 0.4238106 0.30242908 0.650996 0.65749794 0.6737185 0.6589337 0.3147831 0.03582296 0.27309346 0.56689394 0.6059756 0.64856035 0.6576365 0.26273608 -0.117861286 0.0046727285 0.6272359 0.16805738 0.03462579 0.21099912 0.31888282 0.2410245 0.28443247 0.3370214 0.12280479 0.12545723 -0.29967058 0.13368924 0.1289619 0.08186281 0.19726592 0.70397246 0.5924036 0.21214567 0.18616201 0.19598757 0.7502474 0.7228954 0.6339701 0.5863204 0.42712283 0.071303494 0.057040364 0.13633928 0.7318103 0.6960431 0.6440618 0.56870496 -0.003501162 0.7172254 0.69343185 0.6617065 0.5745498 0.61417335 0.64290494 0.5457194 0.48906207 0.5295794 0.39022055 0.38312072 0.4211026 0.36274594 0.2761789 0.23480594 0.23597944 0.13503712 0.32486743 0.28014624 0.2896214 0.21039061 0.19816616 0.69782215 0.11500043 0.21452019 0.07329764 0.74719554 0.6757076 0.6621605 0.10159491 0.65617484 0.64151263 0.60679996 0.1433454 0.15215655 0.45410484 0.48157364 0.61142313 0.08001144 0.5314972 0.61956125 0.58534706 0.022830717 -0.15873724 -0.053511634 0.47164297 0.55952483 0.60172987 0.60694337 0.18134198 -0.1529344 0.26458532 -0.08899987 -0.06322095 0.05269975 0.12717053 0.30626658 0.27770314 -0.012722452 -0.0071911253 0.049522556 0.16978905 0.19216253 0.30635554 0.2587187 0.008930512 0.030499041 0.081502356 0.17250144 0.23276542 0.24904706 -0.43825382 0.06674759 0.25937125 0.36981946 0.1971955 -0.17947927 0.03394055 0.07867977 0.4417502 0.4993925 0.058487453 -0.024325088 -0.009439893 0.07374918 0.08244115 0.48230678 -0.059854187 0.07631115 0.115931556 0.77605456 0.7352087 0.06314403 0.77227163 0.74687755 0.09440266 0.76109606 0.73438144 0.32739443 0.20361796 -0.024847347 0.15589911 0.26581246 0.30294752 0.22033189 0.69135123 0.6817827 0.66292685 0.4692383 0.20394386 0.35950446 0.4120147 0.37792408 0.6090846 0.61378825 0.5483366 0.44743088 0.4616962 0.44507116 0.5197773 0.5284231 0.5036107 0.48833337 0.49550757 0.5093984 0.534272 0.56042093 0.4220584 0.41007555 0.44136977 0.46308583 0.5347382 0.5471177 0.3095048 0.37850198 0.4470166 0.5435046 0.1224239 0.10200957 0.13468689 0.20328982 0.29493207 0.58227557 0.56648403 0.51960266 0.50382614 0.34202904 0.24021542 0.51009715 0.48156565 0.17321095 -0.0062024374 -0.023393251 -0.0015811156 0.38664755 0.41730702 0.50661916 -0.014444105 -0.025901854 -0.0027927235 0.44160202 0.48429233 0.5451192 0.55100626 0.44825935 0.16872987 0.27267718 0.21483329 0.24121517 0.3333837 -0.02263476 0.010513186 0.3175692 0.4130078 0.33570307 0.0994392 0.3536808 0.5240996 0.51228476 0.32684705 0.056738835 0.059980825 0.037283998 0.059622973 0.15613629 0.2888431 0.4343465 0.5313849 0.52371776 0.2717464 -0.13910103 0.06195961 0.27194327 0.38428336 0.4720492 0.53120804 0.52062523 0.095219746 0.09691109 0.42735982 0.47252017 0.49220264 0.6985625 0.6113334 0.10727398 0.39754313 0.4348334 0.4281372 0.7624918 0.050105415 0.08346619 0.7793282 -0.03997767 0.050739057 0.0887979 0.7553452 0.6989781 0.13542894 0.0020430144 0.10804009 0.6347184 0.58157796 0.5658992 0.48118 0.31806618 0.5475607 0.5453248 0.46405864 0.33893198 0.22033164 0.3929606 0.41679585 0.38745788 0.38192493 0.49770215 0.54239637 0.469777 0.4090004 0.46920818 0.51150805 0.53312564 0.48996547 0.6765875 0.40927303 0.43668467 0.5027831 0.60644114 0.6467041 0.67393184 0.6744907 0.3471731 0.35288456 0.6391021 0.30659676 0.5315081 0.06885617 0.045394897 0.032108486 0.12209405 0.05138749 0.012795493 0.0062924474 0.055635184 0.003338948 -0.05719184 0.08136456 0.2514425 0.34140652 0.37436497 0.36490276 0.320216 0.4407128 0.45383897 0.31149602 0.35328063 0.3683127 0.33305508 0.43972814 0.22529978 0.23945716 0.41422555 0.12702717 0.11551779 0.06878473 0.3892313 0.36012873 -0.086926565 -0.10963227 -0.017622843 0.2866848 0.39593482 0.39314327 0.34439322 0.097141996 -0.063679524 0.17316824 0.27914715 0.32983318 0.41727066 0.44706473 0.3688378 0.4731388 0.46955633 0.4131728 0.18420391 0.48562428 0.38128647 0.3976716 0.46806356 0.614597 0.5284798 0.028387928 0.17372048 0.3289772 0.36065653 0.682335 0.5822841 0.0900531 0.09510589 0.25240496 0.25094602 0.7331346 0.6693834 0.122118145 0.12760511 0.107093684 0.15532911 0.18247283 0.7134331 0.6627189 0.12917475 0.14451459 0.12986419 0.5006833 0.30918646 0.10822673 0.13811955 0.13642913 0.49670368 0.43963277 0.168311 0.30714422 0.16790886 0.32587534 0.32420358 0.31842747 0.39620832 0.43493187 0.4881087 0.48538053 0.45239693 0.4041657 0.44101915 0.47023785 0.4916854 0.45078015 0.33807114 0.3861031 0.66285825 0.7049782 0.40279144 0.43705443 0.6456748 0.7246692 0.7261981 0.7010813 0.39852345 0.64378 0.27069658 0.51887167 0.3439768 0.33501744 0.23488538 0.22321245 0.081714645 -0.13134892 0.044815123 0.031289354 -0.041410744 0.13244495 0.32755256 0.31587672 0.22138287 0.12845823 -0.021777734 0.12595263 0.18815565 0.2622537 0.34901506 0.36402076 0.33936632 0.32857695 0.40157455 0.32105666 0.13005883 0.3506263 0.07310596 0.28313074 0.30159518 0.16433401 -0.06261054 0.27682838 0.23557441 -0.005583614 -0.22233748 0.38077608 0.11015287 0.3266849 0.32197392 0.3850472 0.28002226 0.35329258 0.16627577 0.0412416 0.35218844 0.2023991 0.32843065 0.17604014 0.5052116 0.3346908 -0.08531364 0.18262766 0.5140921 -0.003808856 0.18855737 0.5935547 0.13046934 0.1874252 0.20154573 0.5173294 0.4258678 0.12978509 0.116881505 0.14745247 0.39409384 0.3867883 0.13572305 0.11690196 0.10693124 0.3331892 0.3887744 0.3700535 0.37626344 0.44952035 0.336083 0.36614323 0.41440433 0.3404341 0.4309277 0.45700362 0.45599863 0.36458027 0.42222354 0.5631324 0.6937294 0.7483181 0.7406647 0.39809185 0.53711927 0.668146 0.6181758 0.26334777 0.40735427 0.2711314 0.33300105 0.37216234 0.297161 0.2287649 0.22232127 0.1571825 0.19672203 0.20335229 0.11851464 0.13913137 0.31572434 0.26714998 0.18790564 -0.04774473 -0.059090838 -0.06723819 0.0772974 0.2378233 0.31340432 -0.2036705 -0.3183961 0.3364884 0.1907098 0.37473425 0.092807084 0.09083124 0.32510224 0.1960484 0.11935766 0.23034498 0.2392644 0.22632578 0.1704571 0.228714 0.23776522 0.026219524 0.21925695 -0.33070987 -0.25827086 0.042001467 0.09578547 0.2158899 0.08872406 -0.0872453 -0.121369645 0.16587457 -0.10497792 0.13594757 0.13152769 0.281394 0.37498638 0.12778866 0.0684907 0.31215626 0.21011913 0.19060922 0.37465972 0.24022585 0.105121724 0.3839207 0.40158165 0.37522304 0.3326078 0.0825847 0.06315331 0.057189256 0.34226745 0.41408223 0.43149722 0.099763155 0.021039404 0.4021836 0.42910963 0.14582056 0.26969913 0.14747828 0.33048728 0.30018646 0.23594084 0.35933727 0.26769727 0.2631248 0.21535723 0.4640473 0.4444825 0.43452233 0.47108698 0.4687019 0.72919035 0.7233856 0.6257537 0.70875853 0.6468004 0.57348114 0.39507872 0.57497346 0.5301953 0.37732264 0.21399081 0.32939622 0.3711325 0.29161692 0.24035312 0.19456673 0.34638828 0.44499472 0.18590501 0.15726784 0.13336918 0.07190156 0.11002946 0.01706992 0.019368425 0.1593855 0.2840997 0.20708972 -0.05240272 -0.18031968 -0.17081352 -0.13739842 0.1746929 0.5944586 -0.3065209 -0.47831962 -0.14297502 0.2588334 0.34107953 0.6585392 0.6345215 0.54677784 -0.0033219308 0.55857635 0.28756467 0.17728525 0.24385874 0.20733595 0.13529909 0.19430807 -0.051477544 -0.07482338 0.18140885 -0.19135924 -0.33814132 -0.33155346 -0.080062896 -0.12838176 -0.31379095 -0.3277108 -0.29065531 0.04280244 -0.5428363 0.09134543 -0.30656165 0.06618113 0.030900925 0.012461439 0.43492743 0.0001860708 0.3550209 -0.0018659905 -0.0937768 0.4284945 0.40952915 0.32641202 0.0036214665 0.18063906 0.3297474 0.38739255 0.42534715 0.42085207 0.20698054 0.066769466 0.29528862 0.37418967 0.37079626 0.21997824 0.16966939 0.09256702 0.17151794 0.1734244 0.13208765 0.2952627 0.3876137 0.46134365 0.4783243 0.47494218 0.46472257 0.48016623 0.3058642 0.1261417 0.25748754 0.27225304 0.20055754 0.0716082 0.07550525 0.061107744 -0.010482751 -0.06974071 -0.20881875 0.007109735 0.047163196 0.13610482 0.19214045 0.17247504 -0.3366385 -0.286152 -0.18549836 -0.079311416 0.069492795 0.13388573 0.06696306 0.6908029 0.63618743 0.54110783 0.36176515 -0.2473371 -0.2626935 -0.3982048 -0.6011675 0.31782666 0.33026212 0.63750154 0.6785325 0.445987 0.23955071 0.31992632 0.51981556 0.59427464 0.244506 0.10513398 0.119886346 0.2123344 0.07754355 0.15401724 0.16715263 0.27048945 0.14324501 -0.14456126 0.01278362 0.2038106 0.29824114 0.19467896 0.29506147 -0.15484503 -0.13335404 0.13324495 0.23840879 0.32819784 0.23409015 0.02183043 -0.2874421 0.19290262 0.035279393 -0.20685506 -0.26509035 -0.20290363 0.28840917 0.3993594 0.43751138 -0.28628662 -0.09137909 0.20628299 0.32652575 0.4098842 0.50551915 0.13968638 0.21990189 0.32387412 0.50257266 0.5446644 0.56625414 -0.12585856 -0.049075194 0.3532202 0.49054128 0.5587052 0.580371 0.58423483 -0.09088197 -0.041180715 0.091514684 0.38596177 0.47805446 0.5457194 0.59510344 -0.15022649 0.0004494451 0.3090875 0.44487768 0.31902546 0.506136 0.5656233 0.5221435 -0.0064184815 0.3684427 0.50597215 0.4386133 0.26224616 0.008861704 0.00019270927 0.31599367 0.30294287 0.30799532 0.43254218 0.19733945 0.13304174 0.073215894 0.03845608 0.2902221 0.28939867 0.28116328 0.087267146 -0.0008767154 0.32081673 0.05093339 0.28047913 0.28181595 0.39164618 0.4714523 0.41538942 0.45627233 0.4724815 0.53618157 0.55258083 0.549875 0.47514367 0.5505092 0.59858334 0.6081792 0.46246034 0.5592499 0.628273 0.66737324 0.5789801 0.39177522 0.49996263 0.56116956 0.299184 0.37163562 0.5087521 0.048418727 0.01934443 -0.16582394 -0.100630455 -0.11295389 -0.14191511 -0.13477683 -0.009479575 -0.033868045 0.6041801 0.5939518 0.47826606 -0.24532619 -0.41156036 -0.4132607 -0.038964912 -0.07461424 0.06621629 0.3150442 0.29513723 0.6787642 0.67142 0.6129001 0.48132873 0.32717243 0.07862129 -0.3830922 -0.56411904 0.2955719 0.6337366 0.2838172 0.49870956 0.20980282 0.32392752 0.3574301 0.016597617 0.055318 0.46121204 0.12297274 0.095192775 0.51595616 0.42346823 0.05591829 0.2405887 0.1961793 0.42601892 0.3223779 0.092835136 0.2527424 0.20230478 0.26981756 0.31601083 -0.07871312 0.034582607 0.2983522 0.3803625 0.4161424 0.30633008 0.21811372 0.4243309 0.4405405 0.1288914 -0.17932811 -0.2559857 0.4903291 0.48460233 0.5529697 -0.004540175 0.60016227 0.5891343 0.092032894 0.019585583 0.6037407 0.60209984 0.13550252 0.091606 0.37974042 0.4770419 0.5498941 0.5785392 0.38878968 0.07894399 0.5350208 0.5846805 0.2417944 0.5855366 0.54954743 0.5272253 0.44060925 0.28094053 0.06333809 0.050347522 0.00965582 -0.03496721 0.25879335 0.2583868 0.25940412 0.31160083 -0.08302874 -0.12034529 0.26191425 0.26964134 0.24572363 0.30567133 0.40066242 0.4325658 0.44416475 0.42815423 0.53246677 0.4619519 0.42093658 0.3905409 0.2893448 0.39663622 0.37092203 0.62695 0.523254 0.44128406 0.38293275 0.42164963 0.36236402 0.15814191 0.25852516 0.6785395 0.61884594 0.5186298 0.4392941 0.2925423 0.2747692 0.25603515 0.06909078 -0.20890462 -0.15856393 0.2476725 0.63871074 0.47784367 0.3797557 0.28221318 0.12452012 -0.02411629 0.12376943 0.13756631 -0.16275004 -0.20265514 -0.19138832 0.07484837 0.19694626 0.10545872 -0.0024731047 0.44155198 0.28799805 0.21852666 0.07096106 -0.22716889 -0.078264594 -0.055506743 -0.118771724 -0.042710528 0.09524105 -0.027830265 -0.16158992 -0.11109884 0.6252904 0.5037253 0.4389777 0.26767325 -0.23208112 -0.21134879 -0.36067483 -0.27661252 -0.084616184 -0.36958173 0.23828077 0.33662575 0.33550367 0.32654014 0.65494335 0.6472893 -0.2977571 0.009140782 0.27225786 0.28251183 0.5584218 0.60807896 0.2359136 0.32895073 0.3791873 0.42062008 0.38463473 0.26830462 0.5090943 0.50206137 0.4324696 0.03012263 0.5971142 0.5751193 0.13529995 0.60125995 0.56770325 0.5230554 0.42197758 0.19224727 0.2786544 0.5233868 0.4922547 0.37128186 0.47002795 0.26317078 0.44426936 0.4876815 0.28178197 0.28541872 0.044467825 0.4531458 0.471981 0.2629202 0.22046688 -0.1755997 0.4763494 0.46429142 -0.13934124 0.52258754 0.5186969 -0.047510445 0.58244944 0.5424247 0.10663023 0.5514927 0.5901212 0.24160928 0.38745615 0.42243645 0.50275767 0.42729563 0.55214477 0.57434475 0.39865863 0.4758533 0.5741297 0.5291416 0.50598884 0.4307136 0.292803 0.020228727 -0.0544899 0.41636896 0.55147696 -0.08646627 0.32475978 0.41917232 0.34612945 0.34594285 -0.11789909 0.07223346 0.1318755 0.13221297 0.39726293 0.23624541 0.19163257 0.23240545 0.37135953 0.3403401 0.44700968 0.38085145 0.55748034 0.3916316 0.4064614 0.38487792 0.43695515 0.50008374 0.58364 0.6381564 0.42876506 0.56326085 0.657652 0.6871537 0.28851634 0.2999266 0.32635123 0.27754343 0.29368237 0.33176535 0.24974604 0.26067632 0.6789887 0.6064468 0.5484142 0.5132012 0.39352766 0.4209416 0.4125613 0.19239663 0.7384646 0.7221322 0.6588754 0.55812323 0.47571194 0.23008886 0.35465312 0.40907162 0.31987906 0.1333621 0.7327961 0.721452 -0.17628004 -0.06904991 0.687477 0.610906 -0.06664416 0.4958619 0.05167205 0.086490616 -0.08231524 0.028393269 0.07440286 0.48486298 -0.0059641153 -0.27412972 0.16791025 0.3203333 0.33130497 0.3367406 0.32201788 0.6210383 0.59746146 -0.2075814 0.031512458 0.14226577 0.61778533 0.2481421 0.4447648 -0.037786677 0.08629608 0.4223057 0.34213984 -0.051563654 0.5323812 0.5969541 0.05727133 0.591805 0.5581213 0.19680125 0.38451314 0.53233653 0.5203376 0.44031972 0.30008692 0.50648457 0.20334679 0.5226891 0.24434847 0.4969425 0.24499702 0.24201429 0.21883774 0.11402 -0.075742304 0.4820645 0.121120065 -0.25246206 0.49933058 0.4777717 -0.05645486 0.5283489 0.1559939 0.4772854 0.5397878 0.34729758 0.24571447 0.32817394 0.37377185 0.43358138 0.4368877 -0.0129315555 0.21077776 0.5043348 0.19231775 0.51840585 0.46780878 0.5356486 0.53378195 0.47260308 0.38977277 0.5773729 0.5928188 0.34762794 0.16886179 0.098027416 0.608866 0.2357767 0.29457518 0.2915258 0.2077328 0.53962535 0.5835539 0.3517499 0.13237932 0.39887312 0.31386614 0.19409437 0.3047103 0.3614751 0.5895628 0.3736195 0.39451113 0.4163658 0.6889297 0.39933646 0.43195647 0.46507356 0.51986533 0.66124105 0.75938606 0.7879954 0.5013318 0.56050974 0.61779404 0.7075249 0.800336 0.46838123 0.55725634 0.5961235 0.5466345 0.33883542 0.35535038 0.4142049 0.4406019 0.43887034 0.33572045 0.32735783 0.27803844 0.15636286 0.31527802 0.0831388 0.24970339 -0.0004163459 -0.030542035 0.24662027 0.6719494 0.5977273 0.5254679 0.44387078 0.2635352 0.29856902 0.30326763 0.1728953 0.0028029978 0.14223154 0.23531982 0.70395875 0.6828035 0.22919449 0.026341856 0.07951957 0.22526972 0.2685392 0.70645076 -0.024216041 0.099542275 0.6472517 0.00028426945 0.5590494 0.05529082 0.09516652 0.5887639 0.61156094 0.10687058 0.1338755 0.3754143 0.41381457 0.4694847 0.009572633 0.2381599 0.30230725 0.2538811 0.19607328 0.25658864 0.3663026 0.43998763 0.4499293 0.40648568 0.08055165 -0.12260735 -0.40877396 0.2828611 0.3797347 0.39717752 0.5602404 0.30850434 0.33878872 0.35500017 0.2590951 0.44062394 0.14674743 0.48966175 -0.07694024 0.56722486 0.45260328 0.43764323 0.43414837 0.34371418 0.21204188 0.48910502 0.5135039 0.0014342554 0.5180266 0.18273675 0.21260345 0.5180634 0.22210117 0.23618254 0.5060065 0.2297484 0.21850178 0.17592056 0.5144546 -0.20544502 0.52336377 0.12402588 0.30201095 0.4006967 0.46222994 0.32309783 0.13147855 0.33540434 0.4134593 0.3567255 -0.09072904 0.43117076 0.33733383 0.37534142 0.4214314 0.27664286 0.542542 0.54931206 0.38220558 0.21466178 0.16520214 0.62551945 0.28093368 0.17586902 0.21596374 0.6617835 0.65639853 0.3064469 0.36905587 0.5749727 0.65458137 0.44288677 0.43360972 0.36477393 0.4500211 0.52362835 0.43493113 0.37553164 0.180679 0.42424464 0.2815261 0.28804854 0.29617256 0.32609785 0.7453034 0.3550637 0.36179808 0.41854596 0.8552617 0.4759906 0.537977 0.57490593 0.61595094 0.695472 0.8150362 0.8684289 0.6517061 0.71581286 0.77074516 0.551439 0.6583321 0.73051524 0.7329705 0.39200148 0.47392985 0.58754224 0.67257166 0.6316144 0.64536333 0.36047626 0.3449181 0.39310905 0.36196098 0.09634967 0.14661002 0.31933904 0.33101684 0.3572545 0.15934661 0.27936494 0.45711333 0.5285723 0.28559154 0.369497 0.540408 0.4801853 0.28229743 0.1906867 0.16935894 0.18014097 0.11700809 0.26207596 0.34815645 0.5194856 0.6322404 0.09975877 0.32505465 0.63332164 0.25193676 0.84676325 0.81181157 0.5007554 0.100197256 0.17689258 0.689873 0.76458335 0.7536289 0.69295883 0.6154803 0.09594239 0.1902713 0.6637714 0.6581908 0.63800627 0.6056 0.5272454 -0.10410157 -0.043466408 0.16676472 0.14677967 0.4460502 0.4626307 0.49011853 0.4713371 -0.46207404 0.10586993 0.18010035 0.15047309 0.13904849 0.44608507 0.44979292 -0.23715419 -0.1779697 0.09043233 0.4020744 0.4050396 0.06123897 -0.099565946 -0.2865274 0.30727518 0.34757364 -0.1676948 0.24014708 0.2992558 0.14441349 0.18047413 -0.0871653 0.35396582 -0.16411445 0.29511473 0.13111186 0.37338948 0.22168325 0.19591168 0.29562718 0.4427728 0.106830455 0.4325472 0.47318476 0.452669 0.49503523 0.18158275 0.200102 0.52936506 0.18701515 0.185901 0.07784722 0.5681311 -0.3608508 -0.20486385 0.473157 0.5442011 -0.19377948 0.4