# vtk DataFile Version 2.0
Really cool data
ASCII
DATASET POLYDATA
POINTS 4225 float
-25.705427 25.20993 12.599557
-25.75019 25.22923 13.399411
-25.697866 25.286428 13.855492
-25.607342 25.763508 11.112306
-25.665272 25.675337 11.57951
-25.954493 25.72687 12.635334
-25.992352 25.739395 13.442186
-25.74106 25.70595 14.134956
-25.560772 26.10052 11.0847225
-25.703728 26.105385 11.700424
-25.986094 26.480192 12.744403
-26.044315 26.44974 13.408195
-25.806406 26.469055 14.022748
-25.816965 27.005497 12.8982315
-25.834686 26.880293 13.3541765
-25.735844 26.89833 13.924476
-24.650587 19.043806 -3.7762709
-24.644588 18.991192 -3.1015375
-24.695183 19.622843 -4.143273
-24.819565 19.59116 -3.5663753
-24.68638 19.612183 -2.806108
-24.700556 20.229662 -4.165087
-24.751987 20.369587 -3.6328173
-24.642206 20.399372 -2.8315685
-24.598454 20.936565 -3.502986
-25.080387 25.072744 10.7962055
-25.225147 24.909576 11.624129
-25.387407 24.878262 12.678124
-25.38911 24.942148 13.520652
-25.327127 25.10518 14.093699
-24.820295 25.490747 10.235572
-25.369183 25.625834 10.799202
-25.552956 25.308191 11.825053
-25.405405 25.67105 14.539792
-25.010563 25.908968 14.975691
-24.941563 26.251606 10.3190775
-25.320303 26.17054 10.711011
-25.455626 26.521133 11.437497
-25.535826 26.45705 14.395244
-25.103062 26.313776 14.870858
-24.95311 26.75314 10.753555
-25.122765 26.954666 11.6811495
-25.298763 27.254143 12.84341
-25.433529 27.182753 13.393309
-25.107971 27.078005 14.228367
-24.884676 26.80569 14.783377
-23.90241 18.424805 -3.7584481
-23.76244 18.283878 -2.5653164
-23.917595 19.1808 -4.7378616
-24.29484 18.964403 -4.2927933
-24.469168 18.806305 -3.559388
-24.137936 18.686977 -2.444336
-24.01225 18.865118 -1.7331839
-24.117624 19.73146 -4.788374
-24.521793 19.406958 -4.4119005
-24.465128 19.885315 -2.2942142
-24.236292 19.509157 -1.7675574
-23.87838 19.488564 -1.1180155
-23.989113 20.33175 -4.843473
-24.463284 20.434465 -4.398058
-24.169083 20.218998 -1.738222
-23.915426 20.886742 -4.74711
-24.198793 21.117075 -4.1695704
-24.28911 21.30774 -3.4954863
-24.425539 21.000477 -2.8406763
-23.814144 20.911177 -1.8209043
-23.931416 21.691961 -3.4145143
-24.250643 24.35471 11.015852
-24.383528 24.253416 11.896952
-24.235176 24.143723 12.125465
-24.273338 24.93615 10.235489
-24.353392 24.652157 10.620902
-24.693533 24.535667 11.172238
-24.585285 24.716036 14.130143
-24.37178 25.265104 14.991931
-24.0709 25.63437 9.867857
-24.688322 25.95657 15.184162
-24.697754 26.482021 10.309774
-24.512903 26.449938 15.13191
-24.492687 26.97754 10.637588
-24.367277 27.321249 11.632776
-24.631783 27.42733 12.699162
-24.559942 27.461224 13.644626
-24.61768 27.17298 14.390399
-24.617981 26.864979 14.845294
-23.62432 29.046314 2.051021
-23.773346 28.962399 2.5197136
-23.639143 28.860111 3.275055
-24.462725 27.523884 13.203434
-23.779913 29.611506 2.1247334
-23.918734 29.5634 2.7081707
-23.917656 29.5718 3.2642038
-23.71164 29.727398 3.91583
-23.660463 30.161917 2.0720713
-23.80732 30.359854 2.628443
-23.816492 30.357475 3.4361339
-23.686905 30.325348 3.8916779
-23.599733 30.808458 2.8536286
-23.694386 30.76165 3.1349418
-23.646296 18.415796 -3.9278877
-23.625889 18.199175 -3.496346
-23.30136 18.032072 -2.4720562
-23.3357 18.266802 -1.7496544
-23.288464 19.12583 -4.9021363
-23.281466 18.666603 -4.400965
-23.537561 18.541256 -1.4771434
-23.262749 18.825413 -0.8393098
-22.674833 19.047747 4.4316816
-22.638851 18.9883 5.170794
-22.670048 18.69374 7.9153786
-22.681534 18.620611 8.484062
-22.56251 18.572493 8.947426
-23.363485 19.716335 -5.106724
-22.604904 19.488482 4.0565805
-22.732248 19.623669 4.518043
-22.680414 19.540567 5.39556
-22.710419 19.131067 7.8805375
-22.680347 19.36317 8.666428
-22.595957 19.403517 8.884536
-23.478321 20.310085 -5.0498924
-23.457026 20.33152 -0.8639517
-22.652008 20.197632 4.0681543
-22.645792 20.521608 4.434791
-22.645853 20.130013 5.2414727
-22.7261 21.210894 17.557388
-22.680456 21.122839 18.31649
-23.405266 20.895735 -4.8598347
-23.69203 21.310444 -4.445598
-23.645811 21.420149 -2.3158097
-23.263725 21.450712 -1.8612761
-23.093761 21.017756 -0.92407954
-22.79187 21.727186 17.014904
-22.86932 21.535099 17.676348
-22.890202 21.759796 18.559837
-22.810844 21.931095 19.026783
-23.528898 21.66218 -4.0047135
-23.67787 21.727568 -3.5752861
-23.457802 21.714434 -2.509438
-22.898674 21.713102 -1.752863
-22.750776 22.384623 16.894823
-23.08003 22.449907 17.635595
-23.06129 22.454456 18.31643
-22.779413 22.34282 19.30527
-23.110352 24.209057 10.799257
-22.81227 23.614748 12.780691
-23.138523 23.659369 13.240529
-23.347633 24.351398 14.086291
-22.94487 23.165691 17.87297
-22.879425 23.219212 18.615042
-22.732277 23.142437 19.371048
-23.65462 24.929241 9.988963
-23.64369 24.501326 14.175453
-23.393356 24.745771 14.856173
-23.351164 26.165672 9.846502
-23.84863 26.34595 15.280432
-22.517008 26.148937 16.236946
-22.601057 26.776176 17.552816
-22.520344 26.3795 18.528797
-23.205114 28.317188 2.5053403
-23.144415 28.199444 3.0961359
-23.305979 27.475048 11.774024
-23.20292 27.499653 12.037999
-23.585056 27.357931 14.135545
-23.187054 26.885975 15.069461
-22.634096 26.901747 17.625914
-22.780224 28.867954 1.3315008
-23.266603 28.745577 1.909179
-23.457558 28.561531 2.5304823
-23.53069 28.792107 3.5549974
-23.29776 29.05924 4.0752883
-22.662685 28.44028 10.169742
-22.768236 28.675745 10.459551
-22.917236 29.357788 1.2936583
-23.364548 29.570831 1.6742924
-23.30141 29.594662 4.297499
-22.997686 29.8517 4.6165786
-22.680744 29.049133 10.505288
-22.879513 30.087711 1.3840655
-23.413397 30.344757 1.8753629
-23.574581 30.639135 2.366043
-23.429958 30.252787 4.2616467
-23.147772 30.938835 1.9951922
-23.255653 31.09691 2.5649557
-23.311745 31.076365 3.4708076
-23.214949 30.917572 4.012813
-21.657228 9.112059 14.926963
-21.692106 9.088282 15.351063
-21.680428 9.994577 14.219874
-21.841825 9.657027 14.697492
-21.946655 9.691767 15.392437
-21.787437 9.860722 16.223244
-21.767275 10.448996 14.175528
-21.937807 10.417928 14.657021
-22.022993 10.503727 15.427051
-21.865702 10.44791 16.21538
-21.787691 11.150632 14.728927
-21.89393 11.060776 15.463543
-21.731085 10.945463 16.20004
-21.794197 17.144 8.304743
-22.520142 18.145622 -3.6371474
-22.282331 17.61491 -2.5136824
-22.266932 17.81466 -1.6811911
-22.673246 18.19681 -1.2546692
-21.906626 18.225641 4.3603163
-22.237165 17.86079 7.711799
-22.279982 17.830748 8.343572
-22.390284 18.066532 8.931398
-21.771538 17.936987 9.882455
-22.91337 18.998787 -4.7967787
-22.351316 18.933252 -0.2032491
-21.90809 18.716251 3.6444814
-22.354149 18.66141 4.3903255
-22.468893 18.885727 5.3488307
-22.10802 18.6405 6.725744
-22.46759 18.531307 9.1039
-22.053534 18.553707 9.78251
-22.437445 19.624426 -5.0134497
-22.489407 19.823595 -0.027619928
-21.904621 19.473335 3.3045173
-22.329372 19.817392 3.5660722
-22.411001 19.506674 5.9017773
-22.447319 19.61515 7.53821
-22.289116 19.457699 9.414585
-21.726246 19.29717 9.92653
-21.870882 20.071424 17.481697
-21.73174 20.098738 18.155645
-22.627644 20.364594 -5.113925
-21.774927 20.608551 3.0411623
-22.388966 20.24927 3.695383
-22.430569 20.436222 5.5818996
-22.367002 20.113274 5.920811
-22.416325 19.758644 7.875523
-22.28094 19.990911 8.588527
-22.302652 20.87422 16.775583
-22.443588 20.779799 17.691269
-22.279922 20.633062 18.483603
-22.011286 20.746964 19.291924
-21.889767 21.148487 20.077887
-22.754835 20.91677 -4.9680424
-22.965729 21.277573 -4.610905
-22.648046 21.474241 -0.97099555
-21.799997 21.086824 -0.097264856
-21.895227 21.011723 3.2630527
-22.155619 21.023548 3.7932296
-22.176983 21.178308 4.465214
-22.152899 21.098213 5.303762
-21.711508 20.875507 6.1696897
-22.417503 21.605232 16.613655
-22.552168 21.42159 19.091803
-22.106228 21.697227 20.329546
-21.89365 22.024298 20.859352
-22.358644 21.588434 -3.9929357
-22.637337 21.878548 -3.3979273
-22.349264 21.996262 -2.4295511
-22.180044 23.287462 11.616394
-22.238781 23.035559 12.51899
-21.949236 22.601633 13.523652
-21.90909 22.75821 14.489846
-21.665228 22.512163 15.188117
-22.596138 22.483515 16.722462
-22.348637 22.4797 20.433441
-21.896656 22.482378 20.98676
-21.670069 23.401585 9.73632
-22.297243 23.491674 11.386893
-22.193214 23.452627 14.762862
-22.253313 23.148066 16.607058
-22.51764 23.61402 19.469557
-22.267685 23.407316 20.440872
-21.995754 23.306639 20.873055
-21.99704 24.909761 9.0012865
-22.05161 24.4819 16.61253
-22.189344 24.650873 19.402937
-21.58648 25.493305 8.690762
-22.800713 25.646236 9.7223625
-22.377886 25.756117 19.359491
-21.903965 25.757177 20.08736
-21.88796 27.148981 1.5348914
-22.016356 27.200956 2.0614765
-22.447908 26.424582 18.391705
-22.327684 26.426111 19.288803
-21.929386 26.358706 19.987095
-22.097052 27.681866 1.0628505
-22.26593 27.727413 1.5241129
-22.51685 27.69313 2.53862
-22.241043 27.756226 3.3835618
-22.17894 28.053585 4.1045976
-22.348248 27.990025 9.8894615
-22.210896 27.081419 14.537647
-22.16701 27.447517 16.574913
-22.42942 27.139198 17.322218
-22.194592 27.423449 18.363234
-21.966059 27.249422 19.146566
-22.396612 28.8008 0.9927219
-21.8773 28.429047 4.611999
-22.392893 28.964216 4.622636
-21.731993 28.770159 9.107511
-22.189993 28.761497 9.535883
-22.204348 28.786919 11.762366
-22.053408 28.00626 16.844824
-21.853369 28.310242 17.728056
-21.774591 28.091747 18.315191
-22.531235 29.284754 1.1580446
-22.096878 29.643286 4.730696
-22.34501 29.15527 9.937051
-22.44349 29.421041 10.3944845
-22.31171 29.285616 11.411829
-22.668837 30.724583 1.4876561
-22.525568 30.351517 4.660357
-21.931515 29.801405 9.921795
-22.005688 29.89322 10.497373
-22.079857 29.733086 11.184237
-22.48899 31.123566 1.7625535
-22.517664 31.408175 3.5234299
-22.266573 31.026749 4.1584806
-22.654068 31.563393 3.0856671
-20.919243 8.477928 15.359817
-21.209223 9.251137 14.161748
-21.156458 8.736132 14.765779
-21.36268 8.7950325 15.527352
-21.206047 8.975212 16.10964
-21.442291 9.624195 14.115447
-21.453442 9.656263 16.484642
-21.271597 9.816371 16.764952
-21.43861 10.678128 13.906149
-21.565773 10.492115 16.614826
[...]
POINT_DATA 4225
SCALARS features_00 float 1
LOOKUP_TABLE default
0.7245253 0.7912041 0.8121102 0.7001939 0.7038567 0.7772698 0.8392956 0.8388289 0.70302033 0.7206942 0.827358 0.8656739 0.84616536 0.8066897 0.83550465 0.8214466 0.867718 0.8080293 0.92164904 0.8864052 0.8202451 0.9292195 0.90514624 0.8351568 0.87626123 0.6753808 0.64796615 0.67247057 0.72865903 0.7701387 0.6976849 0.69462043 0.68428046 0.81000966 0.7688035 0.69486606 0.69869375 0.6962747 0.8162252 0.7705119 0.6578348 0.67164266 0.7330426 0.77625906 0.7527346 0.72766614 0.80948025 0.68844044 0.91472626 0.88873553 0.8311386 0.7209648 0.6770338 0.93775684 0.9209869 0.77812994 0.7199533 0.66291344 0.92885214 0.9288955 0.7095605 0.90122026 0.88891095 0.8475741 0.7993584 0.6379878 0.8061504 0.53288585 0.47391576 0.42321637 0.65260327 0.6152417 0.6045563 0.648041 0.7364828 0.6601817 0.73470736 0.67548144 0.6993723 0.6016096 0.5432158 0.6204308 0.6630316 0.6860645 0.6910798 0.7049493 0.75164425 0.7995331 0.61643994 0.74993634 0.8125385 0.85381114 0.87965137 0.75507116 0.81555986 0.873541 0.8956107 0.83481216 0.855703 0.814396 0.7603247 0.64337885 0.61026305 0.90314114 0.8577105 0.6184006 0.5827855 0.5671519 0.5034815 0.4428768 0.48099834 0.48315483 0.9169401 0.6130722 0.6065422 0.51307106 0.42702848 0.46505705 0.46611756 0.9160291 0.57887506 0.65143466 0.65304774 0.56237954 0.43310034 0.46021134 0.8839843 0.8629292 0.6626705 0.56751823 0.47149697 0.41296762 0.45577 0.49576667 0.5141033 0.8208048 0.8042427 0.6685089 0.50875396 0.3947689 0.4712087 0.5002448 0.52801776 0.3310322 0.11954878 0.1595003 0.3150011 0.45444238 0.47495762 0.4966533 0.581046 0.44232094 0.45004115 0.46677864 0.60796356 0.20850742 0.43091503 0.4172318 0.6397808 0.6605723 0.33613482 0.32208422 0.50615907 0.41341907 0.4448981 0.58136725 0.6468857 0.68781644 0.79433095 0.79780096 0.37436998 0.41154724 0.6125159 0.6847865 0.84335566 0.8225865 0.4575688 0.6400162 0.72752297 0.79052234 0.8974407 0.73525757 0.79944676 0.87687206 0.9052247 0.86475575 0.8961707 0.8090842 0.86561817 0.9313529 0.9301453 0.7666432 0.80864835 0.85968065 0.8678433 0.6950013 0.769117 0.79588175 0.37749547 0.7212575 0.5868816 0.57667524 0.54755116 0.38642657 0.4115614 0.4545831 0.47087878 0.36456776 0.87123287 0.48346904 0.4832694 0.50451493 0.46318597 0.3106702 0.4754132 0.39518028 0.8274976 0.49470302 0.59333026 0.6366201 0.41924435 0.36018574 0.4324397 0.32958764 0.34923548 0.40080142 0.8576244 0.58278036 0.65279937 0.5112348 0.43372044 0.37301344 0.39666486 0.3349303 0.41126207 0.4403876 0.47113323 0.5151136 0.8425244 0.8192077 0.41075367 0.23559111 0.5897634 0.61940694 0.6309749 0.56041574 0.35821694 0.33004287 0.49740228 0.5555701 0.58453137 0.7247433 0.7244843 0.5845917 0.02591002 0.0009787958 -0.041890528 -0.09547518 -0.086086415 0.35193032 0.5847401 0.59095746 0.0013526455 0.057228122 -0.14116925 0.24530655 0.4457268 0.5500108 0.57304895 0.10782688 0.12054962 0.35513607 0.07758649 0.2785424 0.3772425 0.41505352 0.44800165 0.4565444 0.41988844 0.43106955 0.44494873 0.47329098 0.5101736 0.5316353 0.5397755 0.5843565 0.30156454 0.09650295 0.46636724 0.46567857 0.48799008 0.47145823 0.51363784 0.58536667 0.67876554 0.36567378 0.39898583 0.4302877 0.53648984 0.558215 0.5368946 0.5623802 0.7000916 0.45231998 0.49533045 0.4928906 0.64409024 0.82467735 0.5057509 0.54697794 0.53983307 0.6640724 0.91594315 0.92100555 0.86470723 0.81106627 0.785684 0.8118484 0.8670541 0.8851362 0.80011994 0.9142439 0.8779232 0.7057604 0.8316084 0.8102754 0.85399073 0.6453614 0.55840683 0.62533855 0.6534568 0.73016524 0.8433558 0.8359322 0.70660865 0.556393 0.3602264 0.5227379 0.57098734 0.60348606 0.81846356 0.8362541 0.7689744 0.49473053 0.3967545 0.83751214 0.8040861 0.6305614 0.23299564 0.23720685 0.27479255 0.03240333 0.084540986 0.25588012 0.3360309 0.2529509 0.58330226 0.1605377 0.19447957 0.18130249 0.30441192 0.71321774 0.22293222 0.071984634 0.30597147 0.119137436 0.23118559 0.32340205 0.74990535 0.6535019 0.20288648 0.037840992 -0.0020062588 -0.036350112 0.121278256 0.2520238 0.33303487 0.42209053 0.44923204 0.4621715 0.80204904 0.68989277 0.103574395 0.49050486 0.2754426 0.2906981 0.036828373 -0.19307892 -0.05784732 0.14614907 0.46896857 0.49858588 0.54758775 0.6903947 0.10497926 0.46479827 0.54495597 0.3071788 -0.009209897 -0.1114172 -0.25716126 -0.110623 -0.09722484 0.5555837 0.5777285 0.61248136 0.47143954 0.29344928 0.033277042 0.5221211 0.50720894 -0.12907103 0.5731701 0.56470335 0.07976366 0.16270292 -0.012185305 0.5286436 0.11665006 0.19030195 0.37751424 0.13836507 0.3554379 0.37633258 0.3260845 0.33312383 0.06622739 0.46878898 0.46294653 0.26919508 0.49127012 0.5085626 0.115984 0.23506948 -0.003970742 0.37185216 0.47529674 0.48658103 0.2451168 0.5286381 0.26412633 0.28991717 0.54823434 0.550823 0.49466068 0.4836665 0.6296563 0.33101386 0.36379698 0.5415105 0.57306683 0.5693892 0.4651378 0.72173166 0.49865806 0.5610389 0.5327322 0.52592695 0.58294725 0.59874785 0.749872 0.5018325 0.5593336 0.4874682 0.56357455 0.5568979 0.54255784 0.467353 0.7637216 0.78852296 0.7579086 0.7510723 0.8000015 0.7970935 0.75144815 0.636724 0.78340304 0.89832985 0.9023763 0.8063324 0.6021109 0.36779255 0.36756182 0.65027136 0.7020001 0.75554985 0.8216113 0.8646703 0.89092 0.7147378 0.5703809 0.3571324 0.20643964 0.6288897 0.78537834 0.3978346 0.18958625 0.044013806 0.16105992 0.6011342 0.5539993 0.7567657 0.3958025 0.26252437 0.18145087 0.022822557 -0.051830076 0.045363914 0.1598921 0.24606748 0.43397588 0.76410484 0.7733356 0.28353244 0.15239269 0.16434637 -0.036160197 -0.05827845 -0.046840698 0.042474493 0.12507208 0.7490593 0.76994616 0.4727618 -0.026034798 -0.027801836 0.169072 0.19966194 0.2199741 -0.1105648 -0.02793876 0.014633462 -0.0030031446 0.01800143 0.078832895 0.27973112 -0.090052724 -0.037438527 0.51330954 0.026082769 -0.21410236 -0.059187576 -0.0038431063 -0.04081237 0.07045118 0.08045345 0.1560438 0.3046014 0.3937325 -0.070660815 0.017626904 0.055907086 0.22095987 0.3058969 0.437442 0.44970882 0.5256172 0.28261212 -0.21470328 0.4565055 0.46575207 0.5102153 0.54317 0.5375553 0.46145836 -0.10049069 0.5648021 0.5551921 -0.108854674 0.38521528 -0.042919263 0.024353802 0.53801525 0.5485066 0.02625912 0.024504647 -0.14273654 -0.21542215 -0.15443704 -0.18635455 0.015149791 0.48714483 0.52186155 0.074693136 0.09189232 -0.051805943 -0.07742719 -0.059859872 -0.044030182 0.052719243 0.4122357 0.045381643 0.039497916 0.11507435 0.4562199 0.12920256 0.13919973 0.2637729 0.5035136 0.024645608 -0.00091906637 0.53346515 0.54563844 0.09867203 0.5338574 0.282911 0.50732005 0.29593492 0.16119224 0.38515705 0.37402284 0.47154003 0.5391881 0.5205218 0.42188525 0.40163636 0.46336448 0.76420224 0.6066006 0.19399828 0.32714394 0.4415301 0.39115858 0.4536959 0.4550015 0.41850525 0.59866726 0.62806153 -0.032732397 0.51064724 0.44149715 0.36796775 0.19668643 0.48496544 0.4366663 0.4663207 0.2700376 0.21116838 0.56720245 0.5699209 0.33528823 0.2521247 0.5693664 0.5563496 0.53873634 0.39993626 0.24106823 0.17235114 0.47958165 0.49448234 0.4904557 0.37655008 0.41460192 0.43459192 0.6275624 0.6977431 0.6897136 0.66267335 0.66923916 0.87598073 0.89245903 0.861575 0.289839 0.34460276 0.32714742 0.12822208 0.33555615 0.6702635 0.87128645 0.821777 0.57243854 0.31066096 0.622584 0.79580355 0.8479606 0.44353342 0.260306 0.18118139 0.21981294 0.22326209 0.22891068 0.26425344 0.48720032 0.72787255 0.73867023 0.18291266 0.21160091 0.20256206 0.20277512 0.26231378 0.24558437 0.13324843 0.4333831 0.70335126 0.18607306 0.14347301 0.02716972 0.026605003 0.124216154 0.34628457 0.34084135 0.6672384 0.16122141 0.13356143 0.031063437 -0.036536396 -0.0421363 0.08190381 0.13749124 0.06684458 0.63647175 0.13220039 0.029677574 -0.057394475 -0.3430161 0.094173834 0.22257844 0.116911545 0.35108033 0.41613817 0.14752561 0.45512718 0.4584661 0.47161633 0.47898412 0.5102922 0.53358424 0.5777311 0.51402414 -0.19659105 0.49351966 0.6360214 0.6140492 0.40504137 -0.1579048 -0.2673114 -0.28596234 0.40292665 0.6383534 0.23184508 0.067521155 -0.10205557 -0.08227803 -0.36655244 -0.24459448 0.36070585 0.58671737 0.44072336 0.27907127 0.027755635 0.06976767 -0.05077643 -0.1740372 -0.27566484 0.432276 0.46199763 0.11155525 0.016538892 -0.0009812871 0.16141167 0.515337 0.51074374 -0.018199012 0.018726408 -0.052415095 -0.3375613 -0.025414003 0.55846584 0.16176288 0.4927558 0.5314363 0.35619107 0.23696315 0.393269 0.26803407 0.41178018 0.45939806 0.34317964 0.3979988 0.4801279 0.11857885 0.41929942 0.7631303 0.44718406 0.44314197 0.4112841 0.3541123 0.17382297 0.10851874 0.053321883 0.5257354 0.5559386 0.5771571 0.5782699 0.7633586 0.390615 0.39480704 0.35307485 0.34852642 0.14959699 0.067062005 0.35410625 0.50300133 0.5279857 0.5227268 0.06941896 0.19041705 0.35339743 0.42747805 0.45763594 0.548213 0.09529872 0.06386736 0.24388027 0.44257993 0.44569188 0.46050853 0.10386695 0.052706826 0.38478413 0.34765086 0.34669858 0.18067294 0.102026165 0.40981576 0.37364 0.34058774 0.4379917 0.4039048 0.43047106 0.49256617 0.5336562 0.5557891 0.4776637 0.50396836 0.52455485 0.5029257 0.38613948 0.43729603 0.4392249 0.44169497 0.36082938 0.29900026 0.2993104 0.261678 0.60034674 0.59105897 0.58266354 0.8574953 0.8487811 0.8315257 0.20954919 0.254925 0.556397 0.5749494 0.8140948 0.8335881 0.5128355 0.2277691 0.28712356 0.27918276 0.1917353 0.23988646 0.5127031 0.76484764 0.7669854 0.14197119 0.23274495 0.23686022 0.19836238 0.17041677 0.67438704 0.17264411 0.11205347 -0.03152878 0.029468738 0.09958987 0.30625015 0.62301445 -0.16201523 0.5467502 -0.1630629 -0.097912334 0.03865063 0.003055647 0.063608356 -0.22811532 -0.112089306 0.5752276 0.03126858 0.28466836 -0.3235568 0.39470628 -0.3022945 0.44036627 0.4403351 -0.2425909 0.42130166 0.48452598 -0.029353004 0.38431022 0.47781384 0.5853225 0.40346193 0.6669538 0.63857704 0.6638204 0.631819 0.24274822 0.6144841 0.54788095 0.41587615 0.30952913 -0.34445882 -0.30460224 0.4646005 0.45859647 0.52130353 0.4290977 0.1815241 -0.4715711 -0.34325364 0.49470448 -0.5778773 -0.57447267 -0.20239751 0.042745806 0.5763436 0.18948868 0.12243144 0.50616205 0.5507293 0.27919438 0.2586184 -0.31898218 -0.008353099 0.55125386 -0.2038515 0.030225672 0.33707476 0.63654184 0.874202 0.6068466 0.56482816 0.1371739 -0.24348028 -0.23750353 0.45888758 0.541594 0.57032263 0.4580822 0.5219619 0.69411623 0.7898685 0.8722255 0.5674934 0.05164604 -0.13396947 0.70346665 0.78569883 0.84174806 0.2600465 0.31126356 0.3568529 0.34219187 0.29380453 0.3674311 0.01682195 0.14713714 0.49083662 0.6599042 0.72274256 0.7876901 0.8220403 0.2815411 0.46664873 0.42219418 0.45101827 0.39332092 0.14218134 0.28349364 0.38788342 0.41199672 0.38408464 0.060638554 0.08183578 0.19277245 0.29122424 0.32316372 0.21205941 0.16680335 0.16662064 0.3737692 0.32078978 0.4283949 0.39501697 0.49501687 0.50168407 0.4821483 0.40639937 0.6215243 0.6069946 0.5746547 0.7322097 0.722753 0.7068708 0.5750618 0.48551288 0.5471859 0.5811819 0.5493173 0.4410677 0.42845058 0.4641106 0.5191019 0.26787972 0.54890525 0.81764984 0.7935735 0.35680893 0.20170139 0.50404215 0.54954994 0.8092381 0.8069717 0.74817246 0.23305379 0.3303103 0.30892432 0.17845692 0.10340662 0.1410573 0.5147045 0.7353525 0.102416515 -0.036039997 0.19040585 0.621185 0.0024407506 0.08141511 -0.08050695 0.47816426 -0.14121495 0.14834775 0.3386063 0.35288018 -0.2907992 0.32511348 -0.30623782 0.30947918 0.3601128 0.582809 0.54076844 0.45363376 0.271874 0.6376449 0.13283789 0.67835903 0.67772573 0.66484475 0.6023724 0.43921208 0.59243464 0.5230584 0.39475137 0.30501515 0.50381994 -0.39775708 -0.050854117 0.49607587 -0.044528972 -0.22919556 -0.0030721799 0.09594755 0.24995893 0.15968876 -0.22813532 0.51035535 0.5970367 0.55117416 0.34865797 0.23436874 0.7633625 0.86352533 0.65812165 0.6166966 0.39227128 0.2887354 0.8864404 0.6326817 0.58590347 0.1687796 0.44623244 0.8791771 0.88814116 0.5875598 0.5250478 0.36938757 0.18831974 0.24245071 0.49734423 0.7104367 0.77479035 0.84977055 0.45510554 0.183588 0.21345928 0.2258099 0.19006103 0.29829812 0.2015434 0.32250404 0.3182152 0.1788362 0.15887836 0.09264137 0.13670221 0.19367857 0.4165033 0.38332444 0.3768968 0.5699111 0.40991947 0.37704095 0.7476076 0.50449187 0.8276254 0.7970056 0.7826931 0.73771703 0.8651923 0.8329527 0.81099916 0.559994 0.5876781 0.47174415 0.49267668 0.5342353 0.4691406 0.41449335 0.42450678 0.4602515 0.24058731 0.37344337 0.27958095 0.3683836 0.35349876 0.32351807 0.19404899 0.40151626 0.048158366 0.25170362 0.24629733 0.031962812 0.032138973 0.58323115 0.5469104 0.26842958 -0.046924695 0.041071318 0.22346056 -0.081982926 0.017942905 0.33183262 0.022735406 -0.064217634 0.6226008 0.6451373 0.6018136 0.06431803 0.2731781 0.31280893 0.3998461 -0.109521255 0.43630916 0.020837119 0.28227508 -0.050756108 -0.23269182 0.22166331 0.2548894 0.5701854 0.23087117 0.64053786 0.60685647 -0.12088595 0.67080283 0.67019093 0.022419617 0.6744785 0.67704546 0.09331646 0.6792841 0.19499084 0.51011527 0.39724523 0.226568 -0.005981043 0.28477588 0.12975088 -0.16521932 0.0934574 -0.18515347 -0.074389294 0.54680383 0.430637 -0.35733864 -0.6263671 0.06735101 0.38778532 0.42839167 0.5871603 0.59954596 0.6552775 0.67457557 0.783257 0.6643585 0.12697794 0.83848196 0.63475746 0.62359333 0.84076744 0.56678385 0.53183496 0.22298057 0.7253916 0.8212801 0.8071152 0.52921456 0.47941864 0.33663177 0.14259826 0.117823936 0.07188547 0.06803027 0.22112203 0.45308974 0.55163205 0.057409845 0.2045281 0.2064726 0.2437216 0.28719962 0.15213662 0.35925555 0.36648035 -0.03434506 0.3498091 0.35948727 0.54800004 0.32205647 0.501441 0.8917304 0.7677873 0.930774 0.9401537 0.9019479 0.83907115 0.528761 0.51546323 0.4334967 0.4413129 0.4800089 0.241995 0.15001242 0.37356558 0.07261743 0.32107455 0.047079932 0.039855108 0.20737463 0.23802666 0.30597544 0.48408538 0.26368633 0.24449545 0.20768455 0.106828526 0.30858088 0.08729146 0.10780187 -0.040053934 0.091197275 0.05554023 0.07649469 0.089319766 0.008784248 0.07373908 0.7235546 0.11452419 0.80698454 0.73543245 0.09849431 0.79705393 0.7320253 0.22834083 0.6884829 0.42271233 0.07604379 -0.08308978 0.6235286 0.6328675 0.42626613 -0.055139117 0.65782136 -0.1543799 0.6741419 0.67241514 0.06366314 0.124121785 0.67816496 0.67705536 0.19673425 0.6794157 0.24973817 0.6643714 0.48100948 0.26188198 0.09738613 0.16376734 0.014653169 0.24052805 -0.69249415 -0.7908504 0.29532993 0.359283 0.4092608 -0.6107818 -0.5599996 -0.2612228 0.38652015 0.52436805 0.43727618 -0.47854382 0.6097169 0.5799804 0.68601036 0.57227075 0.695341 0.717122 0.530732 0.5287024 0.41882342 0.66292584 0.51315594 0.4466218 0.32329327 0.06556645 0.12556414 0.30960315 0.4551866 0.07597894 0.17794779 0.19909002 0.23124212 0.17968288 0.16969866 0.30221134 0.35029858 0.20280425 0.088594064 -0.18372369 0.17904097 0.1757183 0.3009972 0.33401847 0.34756196 0.30249417 0.2129142 0.18898095 0.3722513 0.46113414 0.08853149 0.690804 0.82329494 0.7838042 0.65764344 0.89206165 0.92807925 0.9286476 0.88393676 0.5528706 0.5004761 0.23194647 0.18186168 0.13421875 0.3925972 0.09707999 0.23759136 0.34997258 0.19778709 0.37425876 0.3701135 0.7057536 0.6273178 0.43292558 0.2856719 0.22444078 0.07335563 0.30678546 0.6910341 0.54502976 0.21568914 0.21085322 0.229798 0.22752835 0.031822264 0.052313432 0.11995177 0.66084504 -0.009665132 0.068703696 0.40101674 0.108862266 0.109332405 0.08337374 0.106460616 0.82133794 0.6303837 0.11911769 0.116692476 0.858937 0.10268174 0.09067121 0.87643564 0.8967846 -0.14325663 -0.14113852 -0.0060217828 0.061485462 0.6100806 0.40811932 0.68545383 0.34951842 0.00037596375 0.683684 0.1709212 0.68566775 0.6820191 0.6608993 0.46880066 0.26201576 0.12499643 0.032978434 0.26768178 0.29870406 0.38482404 0.30362397 0.54735386 0.4500035 0.46987322 0.4045382 0.44646287 0.46324366 0.22612722 0.4192149 0.36609107 0.2202606 0.07771731 -0.0010925382 0.016346984 0.14765148 0.13659151 0.24003857 0.119276926 0.13999534 0.274333 0.30561334 0.25435507 0.14483531 0.11866605 0.057162527 0.0914961 -0.15838715 0.08417013 0.067280784 0.45615196 -0.12375629 0.6274028 0.6557497 0.5356145 0.75018716 0.788888 0.74798995 0.8017679 0.8365855 0.8760721 0.52693135 0.5519186 0.28673393 0.087476484 0.3465548 0.3805671 0.34758067 0.39702302 0.38784137 0.21235426 0.09132992 0.36282355 0.3146453 0.7000884 0.7490635 0.738773 0.5895017 0.46145123 0.34414557 -0.008919507 -0.072020836 0.2747808 0.16769204 0.624822 0.67846596 0.23046948 0.24075042 0.28272286 0.18319353 0.19886792 0.61332095 0.59947413 0.11145976 0.12504028 0.52811635 0.13752887 0.13815486 0.15041567 0.13017198 0.81623626 0.7074921 0.8509288 0.7879088 0.064943776 0.84939957 0.82372534 -0.2216554 0.7682326 0.7209545 0.6200611 0.067429245 0.023051433 0.098143555 0.084069446 0.09752226 0.6899518 0.6195385 0.50371855 0.039201025 0.68636346 0.6792545 0.11177184 0.6824133 0.6698555 0.2026467 0.6420195 0.58963656 0.5418732 0.34171802 0.045187116 -0.23389414 -0.23072492 -0.008141249 0.10278271 -0.3837819 0.20118612 0.338569 0.28943628 -0.04293673 0.26315403 0.3936704 0.48017913 0.26870474 0.32798856 0.41273275 0.527856 0.6585187 0.78194046 0.40314162 0.37082893 0.42556053 0.50316966 0.7242982 0.82217115 0.8637346 0.38944066 0.38142762 0.17505258 0.49290532 0.56304157 0.70774746 0.85670435 0.91485786 0.9194469 0.27224433 0.0322875 0.7738971 0.8609324 0.91873765 0.94632304 0.025543243 0.05721455 0.06935182 0.06773629 0.1930036 0.10545895 0.21701339 0.23514895 0.06837256 0.27479464 0.3223574 0.25282264 0.2252884 -0.22203967 -0.13343671 0.11347087 0.42460895 0.1594883 0.0748858 0.003829807 0.1563854 0.6067269 0.4788053 0.6724032 0.4793849 0.22275625 0.14766459 0.30878633 0.33099824 0.33834118 0.42825067 0.35386848 0.34195554 0.32582384 0.13080814 0.6860096 0.7234108 0.7423546 0.6576526 0.51302916 0.47681692 -0.22966963 0.6181761 0.6492983 0.37303698 0.5917044 0.60668397 -0.0064518377 -0.06667741 0.06596643 0.11863263 0.5844692 -0.12448465 0.11103447 0.57457006 -0.14709897 0.11969373 0.17148274 0.50825286 0.42196134 0.42495978 0.24157599 0.49309278 0.19851166 0.03322462 0.12301909 0.40478373 0.52789366 0.7512493 0.6592851 0.5487041 0.3681076 -0.17121717 0.79448974 0.7372366 0.6690258 0.094182596 0.78283703 0.74220127 0.682804 0.36394787 0.13981585 0.70195925 0.6774523 -0.22987166 0.07059637 0.02263467 -0.15422317 0.15489396 0.15571609 0.12230601 0.23785172 0.08612308 0.19230115 0.6079655 0.35483676 0.23898612 0.18015403 0.64376915 0.59164286 0.121563345 0.6304566 0.5978701 0.5117916 0.14804092 0.0022104084 -0.06451374 -0.3581593 -0.20657286 0.003935531 -0.11696114 0.02387923 0.047407236 0.17500266 0.06718904 1.6460195e-05 0.1311434 0.19518876 0.24819168 0.17374313 0.06946419 0.20820817 0.26970786 0.39715648 0.45638958 0.63950986 0.37414497 0.5846629 0.7278241 0.80751586 0.37704375 -0.12984106 0.37489223 0.86096656 0.8769296 0.34519812 0.2992357 0.42203853 0.46243405 0.9116026 0.881153 0.19792522 0.20738217 0.12546115 0.6965944 0.8043838 0.92794657 0.94710904 0.16623232 0.7841352 0.84430385 0.9034541 -0.07504323 0.24975626 0.13995928 0.27707464 -0.016239513 0.41491306 0.3717386 0.12878674 0.16190216 0.47054514 0.4686257 0.4369396 0.27359295 -0.0906401 -0.03584049 0.023945784 0.24477033 0.23015511 0.21399681 0.24862696 0.5776054 -0.033228077 0.00783762 0.21680778 0.28057042 0.3087768 0.33287206 0.28495002 0.23872471 0.3604842 -0.38998902 0.23913808 0.317178 0.37217212 0.6689614 0.6649412 0.6671045 0.62228096 0.5774613 -0.2921472 0.3678637 0.61474645 0.62307954 0.6118908 0.54175735 0.49167925 0.3745821 -0.5146184 0.35029322 0.3486767 0.5816411 0.5754948 0.367908 0.31366223 0.26966238 0.26417017 0.3134372 0.5669917 0.52781 0.28402343 0.20622423 -0.061398536 -0.31531283 0.17970662 0.25350952 0.48843127 0.39572138 0.21364585 0.015605655 0.24237677 0.32591668 0.44596767 0.34143332 0.22479036 0.25434357 0.28640747 0.22322956 -0.17917551 -0.24146004 -0.19891058 0.4667764 0.30661207 0.19980308 0.17494759 0.20380689 0.19253123 -0.07659905 -0.15212628 0.6119328 -0.009092338 -0.10263256 0.041847847 -0.3845456 0.5747963 0.6253909 0.5906962 0.