# vtk DataFile Version 2.0
Really cool data
ASCII
DATASET POLYDATA
POINTS 4313 float
-22.543978 14.920732 28.099321
-22.640266 15.040319 28.679865
-22.595776 15.008731 29.131954
-22.534353 15.272329 28.10623
-22.606886 15.817623 28.435896
-22.675173 15.448566 29.382143
-22.622923 16.21014 28.576044
-22.676014 16.256136 29.458395
-22.613699 16.294147 29.938923
-22.552565 17.0255 29.670034
-21.955963 13.899924 28.684801
-21.967543 13.770546 29.18992
-21.833893 13.997555 30.117748
-22.054426 14.625614 27.618883
-22.440172 14.568875 28.577929
-22.433315 14.74242 29.579554
-22.213188 14.912492 30.144005
-21.692493 14.642218 30.834578
-21.8842 15.461724 27.160192
-22.326307 15.578364 27.677221
-22.37959 15.498866 30.373875
-21.832035 15.867063 30.937496
-22.224155 16.63754 27.94956
-22.494478 16.3688 28.343296
-22.430353 16.404745 30.213707
-22.092846 16.599054 30.9057
-21.816109 17.01195 27.505787
-22.252403 17.310663 28.6618
-22.443737 17.498224 29.614704
-22.36843 17.411552 30.45901
-22.146961 17.555923 30.981018
-21.726913 18.335735 27.915709
-21.80828 18.667604 28.41239
-22.262993 18.335012 29.79566
-22.188515 18.406874 30.401608
-21.955656 18.29033 31.060629
-21.693008 19.143913 29.157364
-21.865084 18.991518 30.596895
-21.791416 18.942818 30.847427
-21.751526 24.026564 29.651878
-21.854969 24.096786 30.406315
-21.786642 24.767448 29.210007
-21.877298 24.712845 29.408945
-22.099518 24.697285 30.365131
-21.906256 24.71218 30.972834
-21.60648 25.306675 28.773016
-22.053122 25.429335 29.780811
-22.070068 25.341639 30.353853
-21.815317 25.267689 31.094305
-21.615421 26.69872 24.870596
-21.643333 26.46661 25.718699
-21.583397 26.363668 26.456114
-21.859858 25.827633 30.096193
-21.556002 27.291721 24.532076
-21.633032 27.41017 25.52314
-21.616928 27.510595 26.017336
-20.87507 10.141064 22.782562
-20.989073 10.132643 23.605286
-20.865917 10.092933 24.106026
-20.533997 10.092498 44.718945
-20.733326 10.765581 22.13264
-21.08128 10.638669 22.73936
-21.231703 10.634474 23.355694
-21.120062 10.750718 24.126333
-20.758001 10.713838 25.041784
-20.529774 10.514609 44.514507
-20.83466 11.304555 22.21215
-21.078516 11.399361 22.665417
-21.206512 11.413761 23.421238
-21.048973 11.552274 24.288185
-20.681704 12.136415 30.0983
-20.801853 12.0918455 22.620134
-20.918678 12.184601 23.557932
-20.765375 12.118863 24.156294
-21.015453 13.12385 28.656864
-21.10412 12.819748 29.56889
-20.930399 12.622964 30.417873
-21.199131 13.959492 27.71145
-21.59062 13.847066 28.220808
-21.384113 13.502324 30.463028
-20.883839 13.721989 31.311375
-21.4087 14.619028 27.247755
-21.33393 14.775375 31.078814
-21.704365 15.335819 27.121952
-21.34576 15.430394 31.24823
-20.673964 16.34365 26.186138
-20.929396 16.45993 26.52947
-21.346811 16.756325 31.51646
-20.94645 16.670183 31.543324
-21.167894 17.20722 26.829699
-21.571405 17.369368 31.440727
-21.257864 17.522799 31.621346
-21.407274 18.411978 31.435652
-21.171839 18.307096 31.568232
-20.53066 19.275242 23.727741
-20.504232 19.843134 25.709377
-21.39992 19.558458 29.882332
-21.314018 19.150015 31.162992
-20.670395 20.260218 27.360167
-20.765577 23.707277 28.225327
-21.187757 23.44326 29.250496
-21.329613 23.538378 30.461946
-20.781717 25.103027 26.601128
-21.601246 24.718561 28.864662
-21.396072 24.694162 31.533545
-20.790625 24.48656 32.121025
-21.084824 26.26391 24.171824
-20.98707 26.130968 24.568762
-21.225668 25.879122 25.213696
-21.396385 25.177076 28.608513
-21.598612 25.395212 31.28772
-20.853466 26.991718 23.25718
-21.212738 26.839687 23.794197
-21.409292 26.74326 24.377987
-21.486807 26.447151 25.157095
-21.469013 26.556374 26.661726
-21.296238 26.393263 27.047598
-20.93431 26.680262 28.474167
-21.098959 26.391775 29.083078
-20.728245 26.570345 30.51406
-20.90809 26.237957 31.43705
-20.902462 27.360228 23.279993
-21.241838 27.426365 23.710567
-21.450758 27.551178 24.443233
-21.4718 27.615395 25.086859
-21.455805 27.305351 26.643335
-21.36489 27.156635 27.131561
-20.896381 27.030678 28.4056
-21.019676 26.740952 29.328138
-20.848383 27.887217 23.356113
-21.002375 28.005163 23.765276
-21.106178 28.0792 24.483698
-21.107729 28.325989 25.56655
-21.014446 28.330923 26.406952
-21.018686 27.936605 27.10485
-20.7678 28.594015 26.441343
-19.835157 9.333646 44.030807
-19.972645 9.305723 44.676163
-19.886917 9.203885 45.23481
-20.212835 10.124497 22.097174
-20.32609 9.808391 22.726788
-20.528755 9.740573 23.403057
-20.217436 9.699886 24.369358
-20.108171 9.894346 25.358715
-20.054653 9.717823 43.97914
-20.295036 9.755518 44.527077
-20.151611 9.654445 45.35412
-19.930317 9.845941 45.852055
-20.234867 10.580292 21.817532
-20.447285 10.439293 25.676281
-20.38572 10.780699 26.14294
-20.045815 10.639114 26.80999
-19.874346 10.957057 30.50664
-19.898462 11.104624 31.058922
-19.944942 10.825815 43.224213
-20.38601 10.480813 43.88347
-20.471056 10.521846 44.52867
-20.305254 10.423547 45.350388
-20.016682 10.450944 45.746082
-20.248629 11.376849 21.757948
-19.755772 11.431226 28.829287
-20.57361 12.052306 29.625235
-20.366156 11.716162 30.601736
-20.028938 11.55174 31.38806
-19.818304 11.754378 31.89693
-19.905624 11.2362995 43.229965
-20.243198 11.168531 43.740765
-20.332659 11.289211 44.383507
-20.080734 11.199834 45.156723
-19.85617 10.814906 45.734184
-20.3271 12.166464 22.164652
-20.329067 12.487125 22.57665
-20.05951 12.501665 25.747686
-20.24837 12.297336 26.899345
-20.498322 12.399425 31.27478
-20.086538 12.401794 31.975403
-19.8889 11.6902275 43.680656
-19.903246 11.803458 44.573044
-19.926985 11.700372 44.86499
-20.005121 12.919957 22.90971
-20.20615 13.80006 27.217543
-20.299976 13.491632 32.315384
-19.814533 13.4061365 32.91519
-20.408018 14.444973 32.106735
-20.026669 14.522176 32.717476
-19.736542 16.163681 24.914457
-19.980093 15.821113 25.84397
-20.112244 15.191861 32.26019
-19.85249 17.173021 23.369955
-20.214905 17.101389 25.096134
-20.248976 15.897533 32.062206
-20.089672 17.936264 23.121326
-20.20845 17.91576 23.507675
-20.391384 17.853445 24.506973
-20.366747 17.259647 25.589993
-20.312433 17.597599 31.66876
-19.775229 18.858622 22.322767
-20.031397 18.286757 22.839338
-20.335539 18.572504 23.303238
-20.414362 18.475073 24.385286
-20.573193 18.82522 31.442936
-20.917595 18.479015 31.564413
-20.226816 19.34186 22.928452
-20.435184 19.73318 24.270086
-20.387568 19.873299 26.214106
-20.348341 19.01581 31.29811
-20.200489 20.486261 22.798405
-20.449911 20.66978 24.781933
-20.171953 20.680569 26.408781
-19.996687 20.713943 29.289402
-20.54696 20.08409 29.823093
-20.261482 21.381104 23.037926
-20.330631 21.33777 23.257584
-20.377867 21.467041 24.343296
-20.275223 21.539433 25.687283
-20.42197 21.499166 27.024862
-20.37978 21.121477 27.5785
-20.139675 21.547657 28.746212
-20.056036 22.018192 24.105467
-20.24157 22.05249 25.31098
-20.23245 22.454142 26.705034
-20.266003 22.874527 28.442781
-19.845114 22.479982 29.79856
-20.222742 23.205948 31.354528
-19.817938 23.246296 25.252169
-20.027542 22.919998 27.525734
-20.0556 23.793892 32.28643
-20.010048 24.528965 24.873533
-20.490345 24.660192 32.536446
-20.196018 24.52582 32.70087
-20.542892 25.406555 32.397964
-20.746574 26.533066 23.342123
-20.73885 26.602085 23.402582
-20.520617 26.62775 31.47259
-20.295862 26.201586 32.225075
-20.453419 27.320831 23.125648
-20.042757 27.205181 30.468306
-20.229027 26.879068 31.472979
-20.437525 27.911734 23.32412
-20.491028 28.226887 23.721457
-20.776197 28.505201 24.570438
-20.614098 28.284256 27.162214
-20.201904 28.176073 28.47172
-19.950262 28.153238 29.045815
-20.18226 28.589548 24.466724
-20.276701 28.791447 25.600624
-20.328735 28.734642 26.384691
-20.174612 28.69022 27.055807
-19.358103 9.316628 23.446192
-19.342506 9.33028 24.414137
-19.245361 9.361431 25.4052
-19.110163 9.417569 26.089804
-19.372858 9.075017 44.02406
-19.42257 8.977717 44.599815
-19.46533 9.008384 45.41614
-19.241182 9.15714 45.847233
-19.542997 10.133991 21.898119
-19.3839 9.643374 22.575632
-19.515285 9.529356 25.363373
-19.25522 9.6678915 26.540565
-19.022213 10.313788 29.89925
-19.181538 10.39708 30.247591
-19.3682 9.7079525 43.24377
-19.475027 9.655292 43.424545
-19.57209 9.622144 45.95036
-19.645676 10.62949 21.589432
-19.39185 10.849721 27.70443
-19.471312 10.610358 29.823547
-19.472498 10.62216 30.56486
-19.469887 10.8048935 31.121777
-18.964834 10.860585 42.449295
-19.478544 10.419265 46.07468
-19.44542 11.020339 21.486721
-19.551155 11.402301 21.55753
-19.002743 11.875535 32.597588
-18.935991 12.047306 32.97446
-18.543592 11.959398 38.690052
-18.927578 11.263674 42.19088
-19.659502 11.391029 43.11025
-19.506077 11.423899 45.495342
-19.669111 11.126273 45.64731
-19.618208 12.124247 21.874062
-19.205595 12.501419 22.332481
-19.170898 12.472066 33.056164
-18.68486 12.550664 38.782166
-18.67443 12.563553 39.321686
-19.270325 12.077128 43.64262
-19.478703 11.792542 45.039967
-19.87995 13.108292 23.217848
-19.491405 13.770611 33.229416
-18.728708 13.664282 37.915348
-18.895567 13.622115 38.46577
-18.821766 13.255084 39.187683
-18.589352 14.136976 37.715397
-18.754206 14.423515 38.437164
-18.79242 14.130804 39.189316
-19.159328 15.056112 32.948704
-19.37168 16.644772 23.782703
-18.958235 17.976183 22.167892
-19.645721 17.723057 22.749628
-19.474764 17.488379 31.151344
-20.011944 17.451157 31.588951
-19.633324 18.570915 31.063213
-18.888815 20.010414 21.599073
-19.304981 19.348158 30.230322
-18.66966 20.980106 20.08169
-18.687725 20.34049 20.87991
-19.213984 21.045246 21.50731
-18.692327 21.735033 20.055485
-19.078419 21.368664 20.795338
-19.64484 21.08857 29.473108
-19.712067 22.240662 30.268877
-19.073921 22.265503 20.84251
-19.378107 22.110346 21.678923
-18.993282 22.642971 30.869633
-19.294657 23.341902 32.05364
-19.056618 23.372587 21.773993
-19.186937 23.658287 22.206818
-19.26311 24.47103 33.05118
-19.529324 25.51853 32.879066
-19.377785 26.578247 32.386116
-19.688738 25.970764 32.697643
-19.970028 27.323574 23.015554
-19.25484 27.688538 23.397093
-19.42703 27.435663 30.701923
-19.309904 27.21251 31.53188
[...]
POINT_DATA 4313
SCALARS features_00 float 1
LOOKUP_TABLE default
0.5238518 0.5251528 0.5170278 0.5136573 0.5006464 0.5044775 0.4883412 0.496991 0.49781623 0.5020539 0.5029403 0.47425056 0.42166436 0.5025994 0.532226 0.49895996 0.46132421 0.36680403 0.41303122 0.47499058 0.4656587 0.4263227 0.4297921 0.47228378 0.5011361 0.5042569 0.36076945 0.44371992 0.50730246 0.55996794 0.5787815 0.3366142 0.3936547 0.5562032 0.6025205 0.6159034 0.5092181 0.62566096 0.63194835 0.5139915 0.61719656 0.493483 0.51993716 0.6275854 0.6571126 0.42392918 0.55380374 0.62025625 0.665609 0.63809466 0.5623586 0.48079532 0.5663153 0.711645 0.6397325 0.6038097 0.85295004 0.7501078 0.6596793 0.9054558 0.9077756 0.8691788 0.8110391 0.7032014 0.5382533 0.91451895 0.9144149 0.89216083 0.8281819 0.6895092 0.30211946 0.89704216 0.8381407 0.71685517 0.3470238 0.33031356 0.3233028 0.44725016 0.48583835 0.35639003 0.29859623 0.42225283 0.31628567 0.39938658 0.32040483 0.11043681 0.17607056 0.45799193 0.4285188 0.20944661 0.54559255 0.54700685 0.6105719 0.5937034 0.31019276 0.11592387 0.5754814 0.63062745 -0.011009875 0.16013299 0.38737774 0.5766464 0.22887537 0.4284144 0.63907063 0.6101547 0.62988544 0.57088935 0.50431776 0.37161753 0.6621781 0.7810421 0.73373747 0.6804413 0.59203386 0.46514165 0.3639354 0.25925064 0.3574134 0.49040323 0.57745004 0.8042653 0.77851474 0.75079954 0.7071166 0.5169699 0.4236299 0.2778628 0.37371486 0.83039 0.8381989 0.8249254 0.7242602 0.605258 0.48061663 0.59919304 0.7524046 0.8313831 0.863124 0.8898579 0.8420747 0.7507817 0.5713862 0.44693416 0.79109865 0.86399925 0.898932 0.9042808 0.90943825 0.4289837 0.3761459 0.3081099 0.3156588 0.3411739 0.73860645 0.8567534 0.9150277 0.9140045 0.89972603 0.9123129 0.1724923 0.26344323 0.3248254 0.34709862 0.3518998 0.75610536 0.8531047 0.8947427 0.8800061 0.8710359 0.87688076 0.85158545 0.3379351 0.10090928 0.3331757 0.3426714 0.8214325 0.8582876 0.8558495 0.75148433 0.23481211 0.30362976 0.30183116 0.242488 0.2105659 0.09917421 0.05834034 0.19483826 0.29462945 0.12057163 0.23429625 0.31438333 0.3009428 0.24010156 0.061765146 0.50108415 0.2993815 0.3219116 0.31746465 0.26377994 0.56284463 0.5844918 0.32226473 0.27330732 0.058346264 0.5431173 0.2979223 0.17218535 0.038117357 0.1593394 0.48107937 0.2578993 0.26277864 0.17932238 0.040709026 0.0022155158 0.048639946 0.037364542 0.16194275 0.038679786 -0.03859829 0.10470697 0.11095017 0.37949982 -0.07340591 -0.05944296 0.529694 0.18081295 0.5998999 0.584219 0.598648 0.7157955 0.72184 0.491265 0.5360471 0.80566984 0.3756962 0.44269645 0.8297242 0.83610547 0.81520647 0.48764297 0.3718924 0.3537944 0.7540357 0.66647696 0.57880545 0.49530607 0.69163185 0.52173024 0.40239638 0.32751542 0.68436444 0.7682344 0.8502928 0.8707745 0.8673253 0.814313 0.42106855 0.29601616 0.2174952 0.25950587 0.62299275 0.65550166 0.8915448 0.88795805 0.16519085 0.24997847 0.30380097 0.33850974 0.47065547 0.86518043 0.8708482 0.863063 0.3076113 0.26116106 0.30088264 0.4152072 0.7133267 0.79468215 0.833003 0.79059035 0.64257836 0.27494568 0.35049605 0.35146606 0.7668978 0.7885364 0.68983656 0.24594265 0.33323616 0.35331085 0.3840752 0.2984033 0.3132244 0.34759256 0.12711981 0.24917044 0.23388647 0.3079353 0.37112188 0.45645183 0.43143255 0.25635165 0.3427192 0.4257158 0.3434937 0.29797536 0.43532366 0.37292832 -0.037780076 0.07675168 0.38655567 0.2718047 0.23034911 0.39463463 0.39539626 0.3622669 0.54818505 0.53087044 0.44732404 0.5166317 0.7754642 0.63759375 0.32128906 0.36421484 0.42602125 0.7174345 0.67330164 0.3538593 0.28473285 0.6738199 0.62097496 0.42696473 0.38276532 0.3525691 0.6411323 0.560202 0.39336556 0.10863343 0.03823791 0.39162666 0.5481341 0.8058262 0.78528947 0.7793144 0.7176112 0.14774367 0.08601436 0.11491443 0.44815278 0.792344 0.80965626 0.29443657 0.30606815 0.20819806 0.19640332 0.1844587 0.19410518 0.754645 0.7714333 0.15837803 0.24212667 0.25800475 0.1240379 0.7050747 0.67820185 0.48750615 0.07500431 0.25066662 0.32711405 0.54004437 0.5884191 0.43349558 0.26654586 0.07117486 0.014855877 0.28346244 0.31056494 0.12009859 0.022062048 0.13701642 0.25701246 0.08102924 0.015156537 0.14449222 0.18404083 0.24438766 0.23964223 0.268998 0.3118188 0.4809445 0.1718794 0.070448466 0.22121952 0.21284637 0.25197393 0.2973104 0.5764829 0.67808366 0.18119384 0.41910502 0.5468667 0.6411227 0.7069904 0.73643017 0.7384034 0.18761504 0.3109845 0.384074 0.68121016 0.72515386 0.7398106 0.41665533 0.3243454 -0.21935397 0.46310562 0.43165648 0.45519346 0.44974723 0.22219074 0.42696413 0.4151593 0.40584317 0.39658746 0.37841696 0.50627935 0.48529103 0.38517064 0.34048703 0.48145002 0.31296667 0.42719525 0.2607293 0.3033772 0.38127172 0.5051291 0.4293472 0.3119319 0.26568517 0.26373687 0.44234166 0.38231456 0.36460248 0.3518143 0.7667167 0.7473769 0.63073844 0.4699124 0.12669338 0.026840787 0.0044115037 0.009144794 0.11030266 0.23708901 0.7386848 0.7235892 0.6862657 0.6342134 0.07780002 0.15970337 0.06226486 0.13959935 0.17015266 0.14477308 0.14729236 0.71311426 0.64649504 0.2838182 -0.020174995 -0.0020296238 0.15743075 0.70435274 0.71017647 -0.03784068 0.06746136 0.5922872 0.42446575 0.5037191 -0.010587864 -0.0015928745 0.35432437 -0.19812943 0.13054395 -0.14345178 0.4690956 0.6297656 0.68369055 -0.080319144 0.101741366 0.15950465 0.18824488 0.6890259 0.18354955 0.25299746 0.3152425 0.73046744 0.2695389 0.04533326 0.48811007 0.5471131 0.60805655 0.7002242 0.7154693 0.72588813 0.45885053 0.42928427 0.47013238 0.07996127 0.44734377 0.19173384 0.42056358 0.4018445 0.28883564 0.36950862 0.45215875 0.37159303 0.46984726 0.36939907 0.35740092 0.44221538 0.46345794 0.35482353 0.4167357 0.27754357 0.33890373 0.30018204 0.27634966 0.28475112 0.22843301 0.25638685 0.28767693 0.22647291 0.30324844 0.30438948 0.3040033 0.26805604 -0.015977744 0.111228615 0.24657091 0.6240036 0.7463567 0.053555615 -0.050473034 0.18313284 0.14781174 0.028406342 -0.02097354 -0.034370877 0.03634387 0.2901425 0.6944193 0.7110914 -0.022443347 0.10752331 -0.016821794 0.07074587 0.10802831 0.055233676 0.6828468 0.70116043 0.56025624 0.5423242 -0.018312266 0.66037816 0.6356039 0.37340748 0.2695088 0.12973768 0.098193504 0.6110814 0.0698489 -0.0058208774 -0.089944795 0.10450718 0.69309264 -0.09918217 -0.15622792 0.106678285 0.16533856 0.31737143 0.692382 0.7010745 0.41139436 0.3955409 0.21787015 0.37223837 0.43296558 0.4243611 0.46092504 0.57964593 0.65567243 0.6805196 0.44069493 0.11548799 0.13418591 0.4707047 0.5283639 0.58370626 0.44352788 0.023802154 0.17066345 0.2363147 0.43654835 0.13530412 0.19406113 0.22616279 0.3874951 0.24585468 0.36398813 0.3558216 0.41392446 0.35723332 0.42086208 0.44612318 0.3591625 0.3519514 0.41518104 0.43216485 0.34126982 0.309165 0.40116206 0.29254824 0.31262124 0.33275867 0.29426715 0.26539373 0.25020182 0.25560892 0.81238395 0.86996514 0.89557827 0.90798753 0.7895875 0.7963339 0.66911286 0.7464422 0.8436333 0.88731074 0.9022967 0.7900257 0.8070359 0.84235454 0.82787263 0.46588117 0.63819367 0.7259983 0.8169696 0.86578465 0.78295004 0.80401635 0.8548096 0.8046699 0.4720683 0.47719932 0.45773768 0.3340175 0.6271872 0.7095119 0.7578685 0.72843206 0.7605319 0.75403094 0.6813966 0.38605195 0.43321025 0.45337376 0.40538937 0.32858166 0.14537382 0.5630915 0.63614285 0.5977029 0.028855167 0.3101855 0.31928486 0.26499972 0.12611564 0.13416255 0.07536291 0.060531765 0.106091484 0.049509563 -0.0034048706 -0.09523603 0.016617432 0.20975164 0.1603979 0.022838674 0.064455196 0.0065603107 0.1229715 -0.124526545 -0.008767083 -0.09498699 -0.22558378 -0.06590895 0.24860993 0.49813646 0.61820066 0.6569186 0.102833346 -0.13441685 -0.26238465 -0.06567117 0.6237651 0.64951754 -0.3034165 0.59534925 0.022694005 -0.037511613 0.10894649 0.14435515 0.1920827 0.14294575 0.1384572 0.5616007 0.66125894 0.65318775 0.6676611 0.36397493 0.4553641 0.41693595 0.39260733 0.42119962 0.5264279 0.5716667 0.62843686 0.38682926 0.40248656 0.2588241 0.45066833 0.39842093 0.40681902 0.41258866 0.29325387 0.38828075 0.2814576 0.3427204 0.31242177 0.33322608 0.33432752 0.37941974 0.3395315 0.3337606 0.3672672 0.31469283 0.32599184 0.3114989 0.36882246 0.32787248 0.31404144 0.28239843 0.31810066 0.29491916 0.20722799 0.33278278 0.34166446 0.2995253 0.8251853 0.87925434 0.9115567 0.6776904 0.79771566 0.87187886 0.9161 0.92433786 0.7518368 0.75932306 0.76884305 0.77324486 0.59077835 0.6297379 0.9206394 0.75934887 0.7845696 0.74180424 0.6659111 0.46813124 0.4600305 0.45286912 0.40689173 0.46373034 0.4589573 0.5652766 0.88507783 0.74413997 0.75916624 0.7269263 0.60599506 0.40351695 0.46359468 0.48070908 0.38519272 0.37017947 0.34857857 0.41651177 0.52893174 0.759661 0.6992259 0.7217717 0.5634494 0.31707412 -0.0065930337 0.15407121 0.35343838 0.2507528 0.12788464 -0.16126865 0.28850627 0.43794274 0.4998812 0.5520635 0.624313 0.6063568 0.51155436 0.46131983 0.2138432 -0.004207626 0.044850595 0.049335588 0.03942558 0.09821536 0.014495438 0.1903933 0.37721512 0.44613752 0.41364738 0.080289766 0.0121872835 -0.28647795 -0.33154726 0.28009605 0.12936804 -0.29125148 0.25975358 0.49699095 0.17673928 0.44378203 0.5297886 0.4989903 0.051998988 0.0030258084 -0.094307154 0.063681535 0.105134964 0.104449406 0.0920491 0.14616415 0.18103282 0.118928 0.4918614 0.3127172 -0.030515462 0.59472954 0.37172705 0.6138226 0.3497142 0.29684424 0.4499048 0.40926248 0.38399598 0.37147707 0.36018345 0.41713732 0.52788347 0.36318523 0.35603222 0.41107276 0.47499186 0.3623842 0.35735998 0.44533175 0.38059402 0.36130428 0.30499396 0.34339958 0.20245697 0.33878952 0.3385141 0.14483717 0.31742674 0.24279907 0.20758764 0.087625846 0.15572947 0.2911962 0.25582615 0.24451026 0.30667272 0.3335498 0.3209471 0.4443241 0.5141139 0.5045802 0.47966582 0.4047507 0.5273383 0.8065015 0.8832881 0.9308566 0.7155465 0.70269275 0.6926269 0.64148855 0.7285783 0.95288455 0.7275262 0.7199396 0.71544987 0.70019144 0.505894 0.51999605 0.53816867 0.58189034 0.93232316 0.7331798 0.64038837 0.3838598 0.43216562 0.40069386 0.40304103 0.48724774 0.49457884 0.4734467 0.5091085 0.86658174 0.6787183 0.5075817 0.36785388 0.112453334 0.6489372 0.61890256 -0.07363185 -0.12420925 0.008622948 0.11259683 0.1376707 0.46309605 0.55392957 -0.0517968 -0.030161738 0.24642827 0.31902844 0.40618458 0.08798617 0.14835262 0.35805556 0.2735233 -0.071377546 0.2487393 -0.0018201545 -0.019559722 0.09505619 0.06557854 0.044707987 0.09932069 0.2388622 0.27463168 0.10032426 0.15747257 0.23608924 0.087126195 0.05649937 0.4470803 0.331783 0.43593603 0.498744 -0.11000163 -0.112867184 -0.14111856 0.17500007 0.5356412 0.44704026 0.31910068 0.3301018 0.3043176 0.30245155 0.31368575 0.3377944 0.42504305 0.38602912 -0.22311261 0.3545197 0.33962122 0.3298142 0.35343605 0.29998165 0.31757683 0.33374763 0.29063442 0.31553784 0.16244891 0.2367408 0.34957284 0.33746272 0.13784808 0.31113276 0.16676942 0.014610152 0.19686086 0.33811757 0.32683182 0.41938993 0.51060045 0.43868145 0.593636 0.58821595 0.60151184 0.55607146 0.4913072 0.58892083 0.804654 0.8550762 0.90464854 0.7162754 0.6940022 0.66168916 0.75116956 0.89730024 0.9217087 0.72761214 0.55705917 0.5596719 0.5285621 0.5407882 0.5438237 0.43173173 0.44028646 0.8798328 0.7339896 0.48381367 0.15642229 0.33425233 0.32259068 0.38412082 0.5309453 0.19525237 0.77997136 0.6178578 -0.002135232 0.28951567 0.19200054 0.5006745 0.6737145 0.4947933 -0.06341056 0.47123477 0.21953908 0.39005172 0.31427065 0.28355223 0.11134525 -0.035020694 0.13518243 0.20873062 0.29044235 0.12850368 0.12176377 0.39995492 0.43736172 0.09168403 0.5023738 0.40274236 0.26473188 0.049110584 0.5505674 0.35419303 -0.26170924 -0.18525982 0.08156526 0.12956592 0.17201269 0.19761066 0.5649046 0.54753554 -0.16685042 -0.17700455 0.03006865 0.2228853 0.22184724 0.22060551 0.21113583 0.23768067 0.5158096 -0.13700937 0.2539742 -0.49000198 0.30495703 -0.21436618 -0.08576445 0.25571573 0.17277087 0.1190657 0.28817758 0.18230054 0.13246763 0.25584188 -0.002048403 0.0681773 0.3302962 0.30642074 0.45687962 0.3962265 0.5807585 0.47576243 0.6072172 0.6214862 0.6148472 0.5877456 0.52169776 0.71095043 0.6768877 0.61508363 0.5711341 0.6677723 0.7932187 0.8185174 0.72499114 0.08043034 0.506195 0.54690456 0.31851256 0.3470313 0.70264363 0.79468995 0.65124613 0.36686718 -0.017016292 0.03945478 0.09411293 -0.23500445 0.042352073 0.39965037 0.448694 0.44048184 0.1144897 0.77424824 0.80831766 0.51117 0.014590204 0.03708227 -0.17153618 0.03272517 0.6001407 0.30073538 0.31407595 0.22890314 0.26548696 0.33906457 0.30524942 0.14845204 0.17311819 -0.098640144 0.25926873 0.1571412 0.33476275 0.1574437 0.4941879 0.111670054 0.5392657 0.24116445 -0.05353692 0.2580729 0.5748563 0.56467587 0.57291305 0.5851251 0.54664457 -0.2510768 -0.28824797 -0.095081635 -0.12193474 0.08824906 0.13439652 -0.04357016 0.6500537 0.5946834 0.6051229 -0.025612872 0.011313173 0.5815327 -0.050581127 0.023736125 0.51386297 0.43718714 0.42201295 -0.2722487 0.32375324 0.32524127 -0.16403899 -0.02996099 0.28631625 0.021367878 0.17411783 -0.062043697 0.046741582 0.07223096 0.03170955 -0.069866806 0.1277172 -0.0339918 0.24626844 0.22968656 0.08111509 0.15736577 0.36851245 0.37906563 0.4471199 0.39907908 0.5610333 0.54572594 0.5341903 0.5082762 0.60031664 0.5932858 0.5763227 0.57969177 0.5523627 0.44864106 0.49140528 0.5084953 0.35665873 0.33466265 0.5675399 0.5341805 0.17877132 0.23683508 0.16967183 0.08613107 0.058272585 0.07139669 0.10481549 -0.012828276 -0.112297095 0.20795895 0.46272904 0.6715768 0.5049114 0.23611268 -0.10184853 0.076789275 -0.0160323 0.21866944 0.4442184 0.034868985 0.13824636 0.2587725 -0.00035030954 0.09700465 -0.3703718 -0.07034556 0.2558853 0.17420301 0.19880575 -0.37010524 0.27580497 0.031089779 0.25203654 0.2146151 0.23783056 0.16325168 0.38685602 0.16082986 0.5225749 0.16747284 0.594205 -0.079218775 0.07063034 0.03620138 0.27093145 0.34012648 0.6471379 0.61608756 0.52870333 0.4733952 0.011064693 0.51664096 0.6309151 0.7212151 0.7084511 0.6066841 0.060812883 0.57002366 -0.037493445 0.027745016 0.5243964 -0.30524272 0.40874982 -0.32159382 0.36479735 -0.28534648 0.3358209 0.22050887 -0.09186698 -0.033356175 0.600418 0.48617575 0.19755955 0.61681557 0.5945412 0.06717625 0.1478289 0.20072848 0.40280616 0.3727971 0.4331658 0.4790275 0.46659726 0.5165453 0.5001886 0.8327917 0.74224 0.6822146 0.68803483 0.79064846 0.74871206 0.65005124 0.6125537 0.63382936 0.64202654 0.6690517 0.5141523 0.48438781 0.49368292 0.38339975 0.3979609 0.3346159 0.49996483 0.30672103 0.24689265 0.13136783 0.41136014 -0.00233984 0.038708508 0.24737456 0.26473737 0.61263907 0.25996217 0.24636732 0.019015104 0.21827126 -0.346122 -0.38016102 -0.19323039 -0.16435467 0.11313002 0.057378992 0.14261147 0.4145853 0.16038917 0.1571596 0.34262922 0.36359838 0.47635376 0.69433045 0.19928323 0.09635037 0.07117064 0.5196824 0.60149693 0.20248221 0.096717566 -0.22912578 0.3156354 -0.07980058 0.0967554 0.2985108 0.30383104 -0.11787538 0.5097927 -0.08705232 0.6672442 -0.2687408 -0.11275104 0.025517695 0.08168665 0.11502481 0.1432223 0.37645522 0.46791387 0.7475126 -0.5895068 -0.048063803 0.5778214 0.7076566 0.8048295 0.83702224 0.83066595 0.5705356 0.08060627 -0.13079621 -0.14215612 -0.25626436 0.023199603 0.51209223 0.32254675 -0.12230629 0.46294326 0.34355915 0.40703285 0.34036088 0.27255875 -0.2741361 0.33947217 -0.29249817 -0.21050574 0.3325449 -0.07279715 0.46834618 0.5889665 0.6367215 0.25071156 0.21414556 0.650741 0.63115364 0.5686021 0.1858925 0.8293257 0.784865 0.7441548 0.88574576 0.8399754 0.75116974 0.7155279 0.7121626 0.70164394 0.8781669 0.8784963 0.665497 0.77664554 0.5129916 0.5424305 0.5332812 0.56683004 0.22746795 0.64988625 0.62816024 0.5420517 0.47437608 0.41134125 0.23852381 0.12307752 0.22551495 0.22634256 0.6838363 0.62222797 0.35812643 -0.2535588 0.21622819 0.6919929 0.6522198 0.18838623 -0.17294858 -0.06127902 0.108091086 0.6425648 0.5621371 -0.27773678 -0.39023155 -0.47993875 -0.38455963 0.14109392 0.12881634 0.5369413 -0.051982224 0.57924134 0.5761757 0.6858287 0.7438867 0.7812954 -0.25225422 0.74576026 0.8256123 0.5788483 0.690337 0.80730253 0.053430438 -0.038086288 0.0874772 0.11961776 0.11392569 0.093381405 0.08971594 -0.045114756 0.10054076 0.8049045 -0.2938264 0.14107093 0.17132531 0.7046902 0.83657753 -0.036757585 -0.36428064 0.74984914 0.8127191 0.8538064 0.8532296 0.26101255 -0.057564113 0.3150889 -0.1359023 -0.03336789 -0.02695775 -0.19997525 0.055517312 0.26238573 -0.17163852 0.017592637 -0.1967682 0.03917194 -0.17622344 -0.14691636 0.20453447 0.0356555 0.5022603 0.12349135 0.6158556 0.21909058 0.07453002 0.23367862 0.15537754 0.66528916 0.6859782 0.6603325 0.51188785 0.39496943 0.20960815 0.83404386 0.79043734 0.7400036 0.87297636 0.84751904 0.7068541 0.6882894 0.65168923 0.8957639 0.8721076 0.6533372 0.65028244 0.61562955 0.61241615 0.2698809 0.66970843 0.656651 0.5120263 0.43940812 0.24336939 0.19807288 0.28292525 0.26881397 0.696778 0.6933912 0.19616552 0.2040948 0.20212457 0.23495588 0.23307037 0.13308823 0.68877405 0.6904189 0.11615502 -0.18159243 0.1298975 0.011492096 0.078593954 0.31627682 0.44733673 0.6632647 0.5905329 -0.19655323 -0.42416435 0.16125384 0.2937032 0.35352808 0.43386838 0.58408153 0.6820533 0.73356336 0.50043845 0.6628697 0.7661029 0.80771327 -0.16419984 0.808918 0.86663884 -0.41300195 0.85399437 0.88533264 -0.26315755 0.8174508 0.8581327 0.18249808 0.63829154 0.79721045 0.40790683 0.18715237 -0.12540774 0.4881621 0.37876043 0.28374863 0.15115461 -0.04359092 0.5020838 0.38854104 0.18800755 0.10808704 0.48991194 -0.1411131 -0.04782793 0.038445666 -0.066846564 0.643589 0.69083214 0.7368269 0.8218181 -0.2526627 0.73850834 0.78211826 0.81389904 0.27381042 -0.11582807 0.7584751 0.81231165 0.83626986 0.3541758 0.19009043 0.16980374 0.30309898 0.21544844 0.26624382 0.15638922 0.2741524 0.34202015 -0.16096771 0.29166773 0.37612465 0.36824676 0.43453625 0.3630244 0.22785659 0.38907188 0.45651263 0.52982914 0.24617441 0.46887988 0.6283287 0.19513553 0.021733243 0.032855783 0.081644766 0.17861575 0.6814091 0.7021175 0.68284124 0.5014201 0.8088825 0.8028822 0.7514719 0.6028135 0.5846361 0.8105247 0.8052851 0.77923226 0.7943475 0.6343601 0.64186805 0.48259664 0.4179198 0.790786 0.7769406 0.73483443 0.68091846 0.5739795 0.2846436 0.66454804 0.69888735 0.6389611 0.47178456 0.67229974 0.667683 0.66380614 0.64271307 0.38491666 0.21278006 0.5643956 0.46562856 0.35679 0.30719462 0.67734635 0.6743513 0.38333297 0.11383462 0.208063 0.32224792 0.27742285 0.6650629 -0.26961732 0.12140241 0.050933525 0.015243128 0.1705952 0.03940992 0.67223626 0.66115266 -0.2417765 0.007944167 0.045365244 0.28900942 0.40678626 0.6185418 0.5489145 -0.51967686 0.39348274 0.46495184 0.54199386 0.70409536 0.7497214 0.7838292 0.82427853 0.034451105 0.8688339 0.909001 0.082722366 -0.04201155 0.8920904 0.90885335 0.20749603 0.20915468 0.39978504 0.5322877 0.85208607 0.5021956 0.39545912 0.28790706 0.19795088 0.5799426 0.5427451 0.5910319 0.5782509 0.23190346 0.25581673 0.555176 0.45292246 -0.06486929 -0.084291495 0.018641278 0.013137892 0.31502616 0.28231505 0.01710523 0.2523218 0.38332647 0.45693904 0.41405076 0.47059077 0.36205113 0.3794248 0.45397747 0.18993494 0.42218181 0.43926403 0.41828066 0.480317 0.45640782 0.49629974 0.5041838 0.5061124 0.04714515 0.010169867 0.2589233 0.4844442 0.5251585 0.53444535 0.6087409 0.43395242 0.09734892 -0.0016977228 0.005125002 0.6357838 0.66197276 0.6297529 0.42642316 0.7934435 0.789196 0.83000565 0.8071152 0.7846346 0.75488496 0.561163 0.39573202 0.3916103 0.40227228 0.83106196 0.8219167 0.7107547 0.28082994 0.35796303 0.30200726 0.7367239 0.4444688 0.6553405 0.65040076 0.63361937 0.60155183 0.21988724 0.16679446 0.18260366 0.54657096 0.28619376 0.6492791 0.38996553 0.5926446 0.56680477 0.16152991 -0.15647727 -0.17615825 0.5889282 -0.027230429 0.020066936 -0.39556238 -0.12903671 -0.079962954 0.37283078 0.42276293 0.40055478 0.40541688 0.4632665 0.6362872 0.70836234 0.7589772 0.80512345 0.8328147 0.12979804 0.8661318 0.89091694 0.90349287 0.9113931 0.12793073 0.20690529 0.5310983 0.75122714 0.88021266 0.90990436 0.37912