# vtk DataFile Version 2.0
Really cool data
ASCII
DATASET POLYDATA
POINTS 7179 float
21.421627 110.93366 92.62752
21.393526 110.98594 93.29717
21.355162 111.46676 92.7218
21.361958 111.474304 93.35053
21.405716 111.96679 92.79272
21.388165 111.95331 93.22701
22.149149 110.05691 92.1681
21.962357 109.90738 92.70853
21.99505 109.87973 93.24863
22.058928 110.13159 94.09377
21.905844 110.74748 91.966354
21.585848 110.62596 92.54265
21.593618 110.53238 93.44131
21.9138 110.66753 94.406494
22.27884 110.52033 94.99212
21.795956 111.508064 91.95246
21.471672 111.546165 92.38052
21.497084 111.15889 93.70556
21.729252 111.54054 94.35412
22.181261 111.494064 95.20603
21.964369 112.11186 92.071205
21.723295 112.265 92.57578
21.61436 112.21803 93.28516
22.026428 112.198326 94.37458
22.355059 111.98633 95.31158
22.07306 112.61788 92.6999
21.984861 112.67968 93.2061
22.726635 109.414375 92.79944
22.695372 109.43263 93.27786
22.53166 109.96406 92.03448
22.46975 109.63922 92.59509
22.351019 109.58782 93.32843
22.809675 109.73026 94.41229
22.796263 110.09932 95.11977
22.42824 110.648796 91.67316
22.55261 110.71417 95.457214
22.893866 110.924614 95.81921
22.836126 111.49541 91.37825
22.295906 111.363495 91.57884
22.415201 111.41528 95.496735
22.902128 111.46945 95.85734
22.929096 111.85804 91.441986
22.64085 112.16218 91.72725
22.756187 112.43172 95.33886
22.733065 112.76191 92.36494
22.856474 113.02947 93.32246
22.562038 112.911476 94.269936
23.282665 109.39122 92.79248
23.413435 109.31942 93.17774
23.826162 109.24509 94.639656
23.938438 109.299126 95.05784
23.290733 109.7841 92.09402
23.664284 109.59487 92.40776
23.606325 109.897644 95.47457
23.871769 109.75076 95.68013
23.518047 110.76613 91.43253
23.420416 110.618126 91.50034
23.353052 110.4537 95.87769
23.421968 111.48508 91.36028
23.462885 111.455894 96.064064
23.460934 111.86789 91.42472
23.540571 112.2097 91.69533
23.092594 112.749405 92.224045
23.236805 113.09383 92.99717
23.855541 113.4049 93.48585
23.696493 113.483795 94.72182
23.966417 113.62706 93.76394
23.9318 113.65138 94.30535
24.428043 116.95102 96.38091
24.402487 109.04456 93.517654
24.3726 108.986984 94.57618
24.57643 109.18769 95.43807
23.932766 110.220474 91.83276
24.532942 109.80233 95.865616
24.047367 110.55976 91.653786
24.675907 110.74491 96.27787
24.466017 111.12811 96.31129
24.803331 113.1721 92.82469
25.085348 115.0202 96.49574
25.249372 115.0021 96.82092
24.733263 115.47639 95.54375
25.13539 115.49044 97.08091
24.704945 116.65863 94.812004
24.559778 116.85978 95.5132
24.516647 116.61718 96.63808
24.864403 116.59079 97.31113
25.121487 116.682465 97.69417
24.963638 117.10149 94.537575
24.61668 117.25368 95.59029
24.603361 117.30863 96.427086
24.953135 117.12421 97.46551
25.201733 117.663956 97.75255
25.273653 118.59689 97.20603
25.167551 119.95847 94.75737
25.125969 119.76522 95.261
25.066267 119.05746 96.22393
25.162289 120.57027 94.22949
25.008402 120.64682 95.313866
24.956 120.64724 96.28088
25.378126 120.55452 97.151375
25.175423 121.48891 93.697205
25.014084 121.37668 94.19249
24.936977 121.65421 95.41758
25.376997 122.76043 93.09135
24.988903 122.497406 93.82915
24.737698 122.774826 94.65846
24.837742 122.021675 95.86405
25.225185 122.72829 96.66276
25.372704 123.15989 93.14537
25.079208 123.54217 93.7001
24.749207 123.47777 94.69664
24.767242 123.53087 95.37118
25.025528 123.49942 96.18216
25.149101 124.138725 93.91915
24.983751 124.35397 94.56372
24.92058 124.248375 95.44425
25.17491 124.16044 96.110344
25.206944 124.86301 94.83269
25.218182 124.92748 95.23125
26.32353 107.9361 93.12431
26.378483 107.49136 94.02198
26.319307 107.4115 94.712616
26.205084 108.984795 92.479385
25.48155 109.632774 92.474815
25.349237 109.517914 95.98943
26.00276 111.037285 92.1798
25.443857 110.48113 96.45791
26.337866 110.541466 99.64523
26.417952 110.65158 100.42093
26.105524 111.161835 97.65252
26.278263 111.110794 99.67347
26.377146 111.30036 100.132935
25.848507 112.64004 92.20463
25.733955 112.3876 96.82861
25.250053 113.607445 92.89645
25.81418 113.31602 96.79787
26.00013 114.07027 92.64017
25.550606 114.97366 96.934494
26.467737 115.289215 99.075775
25.625834 116.16714 93.799614
26.014141 116.52733 98.415924
26.37865 116.51091 99.422165
26.34742 116.811104 100.129845
26.44025 117.55493 100.1788
25.89643 118.139145 94.22447
25.59135 118.68358 94.55789
26.023066 118.67941 98.328445
26.336319 118.1769 98.873276
25.878906 119.98527 93.724915
25.602737 119.48344 94.35014
25.597248 119.650665 97.31285
26.267624 119.1621 98.51706
25.859554 120.82491 93.17617
25.524736 120.62294 93.54914
26.103754 121.803116 92.625145
26.188509 123.01265 92.27686
25.79437 122.71364 92.57335
25.866411 122.192566 97.43775
26.088465 123.41727 92.38318
25.657265 123.48453 92.79436
25.817812 123.33911 97.02798
25.93427 124.01634 92.90932
25.56462 124.424324 93.676125
25.53021 124.31798 96.32534
25.821459 124.052475 96.70542
25.714815 124.836136 94.00312
25.61054 125.08953 94.56942
25.70328 125.15673 95.37139
25.768957 124.7874 96.02738
27.427671 104.03775 87.93028
27.458187 104.04872 88.05877
27.256666 104.168625 97.09558
27.27195 103.958954 97.74364
27.25851 104.00118 98.278755
27.47431 104.36137 85.2702
27.459843 104.42314 86.405464
27.462082 104.382706 87.524124
27.157284 104.77898 96.704094
27.013699 104.61102 97.56347
27.066431 104.62982 98.41485
27.276142 104.67763 98.91237
26.938545 105.38948 96.92287
26.74241 105.43616 97.665504
26.910215 105.43603 98.438484
27.103605 105.47613 98.82902
26.885159 107.097145 93.79208
26.801968 106.97043 94.70827
26.635548 107.155525 95.63142
26.904694 106.68711 97.32391
26.923553 106.38808 98.38607
27.230167 106.53698 98.76738
26.721426 107.80199 92.61175
26.495907 107.3932 93.53306
26.510641 107.33299 95.33133
26.967632 106.81751 97.51228
27.031857 108.58084 92.06435
26.499615 108.196465 92.584946
26.921701 109.25663 91.78158
26.505428 110.0202 96.47132
26.70885 109.96501 99.65845
26.857838 109.91137 100.44365
27.051271 109.97023 100.854034
27.37604 111.0813 89.88671
27.142994 110.99154 90.367645
27.068628 110.80413 91.40891
26.477465 110.27 99.53719
26.54135 110.51428 100.52512
26.913027 110.532745 101.06221
27.346598 111.52474 89.78297
26.486063 111.86518 99.76981
26.504858 111.760414 100.30386
26.893223 111.46584 101.08761
27.166885 112.25099 90.75577
26.221903 112.10333 91.99941
26.521606 112.34425 98.29781
26.77895 112.72294 99.655785
26.669706 112.4767 100.146706
27.235977 112.41517 101.274
26.906746 113.126976 91.57673
26.311825 113.49789 96.84484
26.941341 112.8816 98.39615
26.984451 113.25294 99.77139
26.978477 113.5534 100.250725
27.16127 113.88159 101.01933
27.15636 114.18521 91.803925
26.482384 114.48508 97.63969
26.852901 114.1581 99.51382
26.699986 114.78636 100.23812
27.080414 114.60141 100.96223
26.925713 115.73693 100.9875
26.906015 116.33123 93.35515
26.657814 116.14427 100.327965
26.988962 116.56589 101.12606
26.551739 117.361465 100.51459
26.986769 117.43216 101.11121
26.746368 118.05145 100.37045
26.993626 119.76611 98.531876
27.0129 119.20802 99.09812
26.665228 120.61859 93.02455
26.683912 120.569046 98.199135
26.82033 122.18226 92.33759
26.718113 121.51362 97.94722
26.523209 122.71153 92.217316
26.65641 122.6485 97.45342
26.825964 121.93262 97.92357
26.50278 123.391174 92.26537
26.249174 123.723656 92.42949
26.235495 123.44443 97.15541
26.606565 124.094215 92.70352
26.737064 124.517586 93.40819
26.42386 124.38004 96.486534
26.42854 124.01919 96.78714
26.278112 124.9056 93.91139
26.293835 125.20838 94.623146
26.327116 125.21473 95.33683
26.298946 124.92362 95.96189
28.36541 101.97482 88.70791
28.435875 101.98583 89.539185
28.143984 103.20082 84.96956
28.00792 103.15155 85.51186
27.994919 103.06153 86.57649
27.845566 103.031746 87.76448
28.14315 102.68809 88.30318
28.322216 102.463005 89.46839
28.04706 103.26995 97.500496
27.899298 103.31388 98.432365
28.053171 103.323166 98.80872
28.011692 104.0006 84.091255
27.909113 103.69252 84.65172
27.714916 103.65483 85.48866
27.709486 103.53373 86.65132
27.614588 103.56946 87.37642
27.583076 103.615555 88.14736
27.785189 103.41985 88.99317
28.288193 103.23621 89.80613
28.037565 103.887215 95.87944
27.786037 103.693344 96.90791
27.622368 103.5778 97.639366
27.618483 103.6084 98.51665
27.77119 103.79532 99.01867
28.410896 103.88029 106.01224
28.410044 103.92887 106.492
28.00248 104.60381 83.893135
27.645489 104.57073 84.6388
27.532585 104.58615 85.446526
27.571106 104.40908 86.54739
27.519127 104.65473 87.608025
27.533533 104.45539 88.36475
27.836937 104.23371 89.094574
28.040918 104.73867 95.14991
27.684624 104.57361 95.74732
27.551414 104.522285 99.157425
28.317253 104.58253 105.67669
28.320127 104.62775 106.522156
28.427588 104.513756 106.822044
28.06311 105.23379 83.90422
27.775589 105.34068 84.507164
27.59534 105.32981 85.49933
27.717403 105.3812 86.76892
27.630459 105.26108 87.24394
27.812214 105.31901 88.30361
27.992155 105.07705 88.95732
27.652689 105.288765 95.48873
27.754385 105.42824 99.32466
28.401186 105.147545 105.16965
28.344093 105.38033 105.69936
28.322754 105.20113 106.36221
28.306246 106.12773 84.16672
28.216545 106.40728 84.54513
28.093004 106.506485 85.394196
27.852488 105.98861 86.26934
27.827478 105.790054 87.37937
28.261951 105.87377 88.42591
27.413702 107.266846 92.58779
27.37616 106.51639 95.021576
27.839819 106.25061 99.19312
28.308336 106.85777 84.98026
28.279547 106.90846 85.529366
27.39457 107.84611 92.056305
27.777222 109.20788 90.683975
27.411116 108.885925 97.03241
28.050964 109.884125 89.75093
27.392082 109.77599 97.159355
27.503414 109.964775 98.16795
27.276588 109.63097 100.65277
27.344683 109.86383 100.945564
28.160822 110.668434 89.16596
27.89773 110.62268 89.48935
27.5076 110.46989 101.35677
28.0428 110.630394 101.58954
28.04491 111.62922 89.208755
27.553589 111.54272 89.58998
27.340996 111.43238 101.43602
27.650751 111.3545 101.64434
28.098513 111.93174 89.20302
27.693094 112.284294 89.82419
27.479105 112.58529 101.484245
28.01685 112.50714 101.81207
27.66998 112.85056 90.66681
[...]
POINT_DATA 7179
SCALARS features_00 float 1
LOOKUP_TABLE default
0.8834798 0.8369762 0.865749 0.825137 0.84963834 0.825715 0.87261915 0.84535444 0.8080269 0.73893565 0.9353524 0.8958541 0.832315 0.7280048 0.6213641 0.9078606 0.8811464 0.8025801 0.7513807 0.65563726 0.86610293 0.8423985 0.81177366 0.75692 0.653221 0.79366845 0.77161306 0.73428696 0.69386375 0.8370534 0.7866138 0.73913276 0.59349257 0.5399832 0.91775775 0.57103443 0.533298 0.868618 0.91027045 0.6173737 0.5494724 0.84128606 0.83120006 0.65205806 0.72467375 0.6132798 0.68578035 0.6807128 0.6363549 0.49018747 0.45735556 0.74388635 0.66115594 0.46037638 0.43266684 0.813697 0.8206358 0.47161478 0.8061551 0.46909297 0.75976497 0.6805169 0.67336595 0.5514968 0.41763854 0.50885266 0.40127546 0.42385644 0.41307962 0.45249718 0.41566208 0.37222144 0.6722547 0.3712526 0.672455 0.31553736 0.32242244 0.27361873 0.25702742 0.18096116 0.4590732 0.26721328 0.3628198 0.40363345 0.4276561 0.34567642 0.26867738 0.2424308 0.35277283 0.37252998 0.30141747 0.22379035 0.23833878 0.26481596 0.25017998 0.2706851 0.33098394 0.3250433 0.32863578 0.34219226 0.47293425 0.4250415 0.43989107 0.6341424 0.5834488 0.60500985 0.5492707 0.62175024 0.67165995 0.70687675 0.72378075 0.76146865 0.7330061 0.77526796 0.8264173 0.8457006 0.79426956 0.893733 0.90532535 0.2758529 0.24481075 0.1641777 0.08979478 0.1112772 0.25254038 0.00035206974 0.21007274 0.49361348 0.5414828 0.033091903 0.43543053 0.47655424 0.08164067 -0.19468091 0.14812648 -0.2909534 -0.03272163 0.102175385 0.036061693 0.068773314 0.12566829 0.15417965 0.22862583 0.2467957 0.067249045 0.1579869 0.15972725 0.15131971 0.27273178 0.21397477 0.22398871 0.1606076 0.45062816 0.37534267 0.59340715 0.69255376 0.65119445 0.38449037 0.71858096 0.7125521 0.54373205 0.7609547 0.80455905 0.76738644 0.6611952 0.8610952 0.913122 0.9250076 0.83848965 0.40128112 0.40558916 0.49519634 0.58672917 0.642951 0.54680264 0.41656828 0.39748758 0.42468145 0.59192955 0.67681503 0.6885035 0.46561503 0.61444384 0.670015 0.6686586 0.30096957 0.18877608 0.08161946 0.516988 0.6474867 0.6137952 0.29349357 0.30722445 0.1101037 0.54698914 0.1585282 0.23298228 0.08247429 0.031202987 0.50554484 0.55014133 0.5449013 0.32738245 0.30291328 0.15411802 0.4969856 0.5477858 0.5332819 0.32000387 0.3493023 0.43920416 0.48474827 0.17334044 0.023537382 0.048440784 0.21662289 0.3201499 0.36568823 -0.07388361 -0.30856442 -0.005331048 0.17378572 0.19876942 0.21898243 -0.058636993 -0.17661922 0.051297307 0.14751476 0.19729625 0.23984808 -0.040478483 0.2219875 0.30163088 0.2848888 0.3568796 0.28836602 0.12995528 0.12304526 0.45297563 0.19873035 0.62595755 0.22763407 0.67423964 0.3250017 0.2415256 0.71938735 0.73805285 0.48170084 0.76395416 0.8029172 0.6542213 0.5627959 0.8657604 0.92184925 0.91232836 0.8225739 0.35551333 0.34442312 0.54816794 0.50054765 0.39300153 0.3686225 0.38127458 0.3767311 0.4858798 0.57903767 0.5822855 0.667748 0.62227637 0.5225534 0.4041821 0.37703463 0.4014017 0.43545657 0.42036736 0.28306055 0.43929946 0.5412078 0.62321556 0.6426652 0.8109489 0.8881594 0.6653164 0.6403522 0.51855755 0.4099447 0.4012666 0.41959226 0.4448014 0.1269311 0.2454803 0.67735577 0.7605061 0.86567616 0.89077926 0.6376267 0.63054454 0.50362694 0.39955044 0.39684743 0.4126779 0.39954418 0.12889843 0.6070039 0.67025685 0.74965334 0.83619666 0.6069242 0.5924516 0.51699656 0.4332357 0.39341462 0.34566694 0.32466286 0.11727216 0.52782726 0.55559236 0.50049525 0.24986862 0.1965663 -0.28303286 0.290281 -0.22209173 0.06856754 0.5153401 0.51703 0.31648234 0.32058486 0.47650063 0.3826748 0.31092352 0.32039556 0.44167548 0.3949852 0.29940718 0.2709872 0.3312334 0.2664981 0.11507219 0.2621824 0.2358701 -0.053172298 0.19250959 0.0059425123 0.10492749 0.042709906 0.31774122 0.37272185 0.22406386 0.1981961 0.3907535 0.42908156 0.27482122 0.168024 0.446939 0.44979757 0.34400472 0.11151378 0.487104 0.15305716 0.65274215 0.20701079 0.15342021 0.71458805 0.70762116 0.36885476 0.7451458 0.76037776 0.7211494 0.55711794 0.846408 0.8165414 0.26858076 0.2586943 0.2514609 0.21448258 0.29621482 0.33020028 0.31624073 0.2958556 0.24618597 0.22387703 0.2055163 0.5287178 0.41849166 0.31169605 0.18368289 0.1159516 0.08796216 0.14314821 0.35855177 0.41097456 0.5355414 0.5002209 0.6313807 0.7582183 0.91366744 0.9775062 0.6328034 0.22536227 0.1457752 0.039422736 0.061668046 0.13695821 0.17700937 0.5705024 0.6336955 0.7379426 0.92006844 0.96705496 0.945316 0.59157866 0.6341569 0.22259378 -0.045578755 0.62323195 0.58299196 0.5180792 0.60748065 0.7113081 0.89436275 0.896361 0.5598173 0.59533954 0.28000653 0.22145459 0.54556173 0.45611903 0.42633057 0.56842214 0.6994748 0.83799624 0.8487816 0.52914655 0.5913737 0.21912502 0.26317587 0.1472852 0.39535815 0.41329616 0.45763564 0.71755266 0.8126705 0.81079054 0.585515 0.5726028 0.5135751 0.4329347 0.3143262 0.2106092 0.5578364 0.5121241 0.2102073 0.25207317 0.27338052 0.25299186 0.2975829 0.2870458 0.28794083 0.2672749 0.2461414 0.19952466 0.10813184 0.16339731 -0.01685239 0.0024357028 0.03684842 0.25436968 0.35768998 0.37373248 0.2770039 0.42623055 0.40284783 0.2995012 0.43963715 0.26477382 0.22664791 0.40640354 0.41822857 -0.09046603 0.057326723 0.0353424 0.13158408 0.122579984 0.33054414 0.401035 0.32751036 0.24663359 0.6644987 0.6850691 0.1498892 0.11689085 0.20434749 0.17913833 0.19074556 0.16366537 0.18152581 0.14257415 0.1066504 0.24634592 0.18209165 0.07731016 -0.123085655 0.6350627 0.8170265 0.9150219 0.36485925 0.2993009 0.117764756 0.20411602 0.27251565 0.5080085 0.6200993 0.7206789 0.8926566 0.9713833 0.96769226 0.5626837 0.48914438 -0.0059004724 0.47556928 0.15975675 0.38200164 0.44992566 0.5406842 0.9249172 0.5023793 0.02858264 -0.06623179 -0.23223336 -0.061857857 0.4005915 0.45450798 0.81494045 0.8409971 0.47208393 0.1360151 -0.3371305 -0.29980162 0.2861085 0.3297079 0.7844171 0.7935092 0.49365208 0.53774846 0.09485947 -0.10758981 0.114769146 -0.30007735 0.28078955 0.4937304 0.6326736 0.7576361 0.76684564 0.5559764 0.06425807 -0.08501066 0.18888368 0.086381525 0.34866962 0.55477107 0.53339547 0.44793165 0.22836801 0.18405177 0.040464103 0.10246596 -0.19439311 0.19273126 0.17466228 0.1695792 0.17343795 0.17916885 0.13437693 0.16457179 0.02903773 0.16881539 0.30668497 0.1372402 0.15223145 0.25453687 0.011389788 0.015756177 0.28110808 0.29487616 0.1900928 0.35174134 0.29190361 0.38454524 0.38727546 0.23989129 0.293692 0.3728044 0.0700531 0.1205993 0.0048280954 0.18975322 0.0756649 0.052423276 -0.09921099 0.68626344 0.7550262 0.6903269 0.6399596 0.73739636 0.7503458 0.69606674 0.6383157 0.69911665 0.68455184 0.51055604 0.5170914 0.6671424 0.653622 0.41253114 0.46930546 0.42405838 0.09924134 0.0554641 0.031656757 0.25459528 0.29834104 0.36435866 0.324808 0.1789802 0.15162137 0.120342754 0.08467132 0.09532415 0.073997855 0.07838076 0.09498371 0.15469119 0.15144941 0.18914677 0.034410264 0.11605774 0.08321773 0.05682134 0.070200145 0.0025696233 0.058216576 -0.008943789 -0.01540941 -0.16896889 -0.11185316 -0.11649948 0.50531244 0.59447086 0.8111654 0.23195672 0.16547038 -0.035204027 -0.03949821 0.44242337 0.49310583 0.89105576 0.93393075 0.33069447 -0.13508633 0.03971953 0.29763088 0.8613549 0.7431648 0.73440874 0.37250227 0.22071484 -0.36417156 -0.43727 0.6527717 0.44783247 0.34898126 -0.46894002 -0.33151397 0.6825525 0.5065175 -0.46296802 -0.3307811 -0.050268322 0.394951 0.46972576 -0.37796637 -0.3017173 -0.18841428 -0.14044508 -0.015259638 0.026461802 0.19217598 -0.099686265 0.15837151 0.14958425 0.16206962 0.13403934 0.28032792 0.04737673 0.42220905 0.27844536 0.05675543 0.42158204 0.36500853 0.1760009 0.46480894 0.3856992 0.3007808 0.21023634 0.22608906 0.41071838 0.32762808 0.26579353 0.27498022 0.19695447 0.2768272 0.19441041 0.32420743 0.069025286 -0.021339603 -0.10511677 -0.028873533 0.25344226 0.2249903 0.15865085 0.29018298 0.008880645 0.25508717 0.31026903 0.3273979 0.65754944 0.6127423 0.61991894 0.653111 0.65175027 0.6069948 0.5473826 0.59676516 0.58350325 0.5830296 0.56491977 0.51606274 0.68809104 0.69535184 0.606792 0.5487479 0.48430693 0.5140367 0.48135537 0.6625743 0.7020439 0.7418798 0.5714713 0.421256 0.66509855 0.7054984 0.55372477 0.48310035 0.3325284 0.3901081 0.44885874 0.44398814 0.6799302 0.69412315 0.59644234 0.21396115 0.2998057 0.4290911 0.5247729 0.52418923 0.48327178 0.35405272 0.4600395 0.5334522 0.52722275 0.6631879 0.6614024 0.61194444 0.52203894 0.18225272 0.15723218 0.1072301 0.012993967 0.17551625 0.30555624 0.4019412 0.4176877 0.37881154 0.5375415 0.5306494 0.5843745 0.14905359 0.197347 0.17335452 0.16870534 0.09824668 0.051242385 -0.016571872 -0.10639149 0.22745222 0.25127554 0.21727094 0.11079882 0.101649866 0.15212303 -0.017650332 0.0767679 0.11165546 0.14020145 0.15807444 0.058216296 -0.0045830086 0.104459845 0.15402384 0.17723769 0.065950654 -0.02333528 0.040908415 -0.1803906 -0.06999436 0.48751262 0.51658785 0.22382054 -0.15075177 0.38483667 0.40121484 0.7410274 0.27395904 0.8067861 0.22981207 0.7475972 0.13715066 0.49533704 -0.3563376 0.37539956 0.17786984 -0.031623654 0.10746634 -0.32268935 -0.053037558 -0.049279977 -0.18563315 0.12633403 -0.010848343 0.14610794 0.10763097 0.36262998 0.29243293 0.05791482 0.045041747 0.46730748 -0.026002921 0.5271072 0.16332841 0.52145594 0.49235037 0.24835873 0.45765674 0.28484815 0.3038546 0.2804503 0.29767948 0.33007905 0.3403556 0.25518036 0.41491628 0.36159387 -0.16283283 -0.027434994 0.47533217 0.44651616 0.24374035 0.51597166 0.43571755 0.28311813 0.29272008 0.27505672 0.2785983 0.2442129 0.30172282 0.3562924 0.38667414 0.38070711 0.5746256 0.48949802 0.6369066 0.6667221 0.6318854 0.5765556 0.4995361 0.5426725 0.6095178 0.64482224 0.50123465 0.3548012 0.60925996 0.5231988 0.5009669 0.40191606 0.5528963 0.5173704 0.49483657 0.65457946 0.65270543 0.4760176 0.4703377 0.41890985 0.47978383 0.37598255 0.36643893 0.23420948 0.31402245 0.37353888 0.66450405 0.6615653 0.4527734 0.29997823 0.20477499 0.28697655 0.2419172 0.24132496 0.16241981 0.35166505 0.41204667 0.42682227 0.44758794 0.65939504 0.6576248 0.03567167 0.41152155 0.4302627 0.49975473 0.14495198 0.21134514 0.28776604 0.4366355 0.4881428 0.49175963 0.6573085 0.17107317 0.05496387 0.03589099 0.12976211 0.12027052 0.113620594 0.07889896 -0.0043861084 0.1500124 0.22730166 0.34938157 0.41831505 0.19761977 0.28939533 0.48108536 0.29260057 0.50903964 0.54740036 0.5362204 0.6321599 0.049588647 0.1858432 0.14240775 0.033729352 -0.024654727 0.086505845 0.30050147 -0.0077493116 0.29249102 0.50400573 0.3987372 0.51965976 0.56970644 0.54864234 0.5221376 0.07045496 0.067322664 0.0865844 0.36083823 0.3984385 0.5032936 0.5405859 0.27501708 0.25185004 0.17071909 0.17041722 0.25086695 0.20356977 0.1689914 0.19846472 0.20983943 0.17473891 0.4265287 0.5120933 0.2613953 0.2638008 0.12436251 0.6950593 0.25606462 0.17519489 0.15360866 0.6850444 0.13983387 -0.045244522 -0.0023156814 0.10265735 -0.0076816147 0.014895022 0.20234971 0.15599087 -0.037112713 0.17885725 0.09359178 0.07878151 0.16817197 0.049856707 0.37817895 0.47771946 -0.0211076 0.53644896 0.11910923 0.5135071 0.2889309 0.4140674 0.3916765 0.36341956 0.35929146 0.36935747 0.38754374 0.37245262 0.16328065 0.32341048 0.38445774 0.3988025 0.40036792 0.459659 -0.3226546 -0.10920283 0.4707476 0.5037514 -0.05380738 -0.2338208 0.5437086 0.5373132 0.07398708 0.51192445 0.4156418 0.35223347 0.27727127 0.24960302 0.2799171 0.36536798 0.42803374 0.44596437 0.4172215 0.6078151 0.5330374 0.45408785 0.3704306 0.3318464 0.64070785 0.6425275 0.358936 0.30637977 0.42968637 0.41685188 0.5548235 0.5977919 0.3253662 0.2144866 0.18689208 0.5779929 0.48004425 0.41050866 0.31850398 0.51771903 0.20661113 0.1827081 0.21819006 0.66666454 0.66133815 0.3160153 0.2601008 0.15802933 0.427992 0.2572446 0.29981294 0.34233734 0.6610411 0.060738303 0.18632711 0.31269097 0.021548662 0.4195571 0.6281503 0.026051529 0.07147583 0.13218756 0.12458882 0.10455426 0.14674623 0.23889989 0.35613728 0.47627628 0.45740122 0.56706 0.00241388 -0.0151856765 0.045131046 0.0543387 0.07589256 0.12824905 0.10577893 0.046889186 0.17309536 0.27183315 -0.19972691 -0.114965305 0.50264865 0.471658 0.51294655 0.41601765 0.49794188 0.48077697 0.23778124 0.33123165 0.120736614 0.4418623 0.50604814 0.2919024 0.2920205 0.106857724 0.26095027 0.2837894 0.23678428 -0.020509256 0.007261887 0.1867665 -0.06974016 0.20778926 -0.09829825 0.1435319 0.23771036 0.2649227 0.2148384 0.4280096 0.49326718 0.57587266 0.6064966 0.26751566 0.6454753 0.6972278 0.6918081 0.721122 0.25062102 0.031529486 0.66614807 0.7534715 0.7708506 0.76759106 0.17285292 -0.008891124 0.24217074 0.42327148 0.6610539 0.72458565 0.7722224 0.054107796 0.024630137 0.61427677 0.6899979 0.7364615 0.19035944 0.026376192 0.2391539 -0.015749836 0.03819745 0.2165457 0.04506505 0.09413221 0.23726618 0.2275513 -0.15408042 0.29971159 0.44588047 0.011189673 0.45866024 0.17348278 0.42093024 0.30056024 0.39894235 0.404274 0.38441816 0.37222272 0.4457962 0.37627 0.19436128 0.31259856 0.42127937 0.4495451 0.038082555 0.52391255 0.54719377 0.0330466 0.5768994 0.17146905 0.5651402 0.56407934 0.50309813 0.3393669 0.2905177 0.11352317 0.27841663 0.3451692 0.40661135 0.45739037 0.4208251 0.43048453 0.45014995 0.58131087 0.6136277 0.58318913 0.6216959 0.6575954 0.58278793 0.64853585 0.67701113 0.39059004 0.3638193 0.50155544 0.5418484 0.4773918 0.3967694 0.34782088 0.3036412 0.5714922 0.27170983 0.23920286 0.39504483 0.35894197 0.2689585 0.4931194 0.42330468 0.22412765 0.18955213 0.6168587 0.53393614 0.29091537 0.20301437 0.36275142 0.22720978 0.6507937 0.2164487 0.34109604 0.39638072 0.3478803 -0.07576863 0.20827116 0.3110904 0.62842345 0.34445223 0.2893074 -0.03901278 0.00125039 -0.01115679 -0.075853996 -0.14181413 -0.098745614 0.3747902 0.39881635 0.5898695 0.5153979 0.19314066 0.090324804 0.012167089 0.11646297 0.12832065 0.08968607 -0.029051172 0.0051930766 -0.28724092 -0.19895175 0.42736018 0.42108694 0.55328476 0.47867435 -0.17238444 -0.35852206 0.4173845 0.4277553 0.3006662 0.42801708 0.2838011 0.2974494 0.11594694 0.36052456 0.31746456 -0.14462125 0.0743043 0.33413222 0.32137373 0.32604188 0.2663329 -0.13802534 -0.275704 -0.14964435 -0.054428957 -0.02423213 0.15368746 0.3747821 0.15561548 -0.22217786 -0.085739486 0.031878468 0.32427433 0.35999492 0.16608271 -0.24960946 -0.25344378 -0.17743675 -0.05132226 -0.17248979 0.24972856 0.31303588 0.20624478 0.22409163 -0.010823235 -0.38908496 -0.3072251 -0.12475222 0.44584203 0.56361985 0.25945178 0.2334483 -0.12999792 0.08745964 0.6440036 0.6783385 0.75690174 0.7707545 0.78530836 0.21342096 0.1387535 0.12503529 0.42112795 0.61651933 0.6696868 0.72220254 0.29362813 0.03616164 0.30347162 0.118282236 0.2827881 0.2530111 0.1923084 0.2689849 0.26738533 0.24232191 0.12446445 0.23134921 0.30149367 0.30036113 0.32683003 0.04978065 0.14113975 0.22147879 0.4026003 0.3963591 0.31048468 0.38226214 0.44220227 0.38789433 0.4706725 0.3922138 0.31166047 0.4393183 -0.06528062 0.5537983 0.54338455 0.049470745 0.24111265 0.5730109 0.20402382 0.2590762 0.5355629 0.43703157 0.34009117 0.24569996 0.3048447 0.4464156 0.40988195 0.6791154 0.64840096 0.71996653 0.7172951 0.7260308 0.44942683 0.5181514 0.5488165 0.5818515 0.3819607 0.45258543 0.53939366 0.5910478 0.62296283 0.3624983 0.48688602 0.5384339 0.63939595 0.65780234 0.38734496 0.4925021 0.57076484 0.6766691 0.6357281 0.4408073 0.40090105 0.36495334 0.3446145 0.38767833 0.47559813 0.580471 0.6322535 0.37006864 0.33711585 0.29012793 0.23831913 0.39643732 0.4853252 0.5155431 0.51670367 0.406224 0.17438212 0.26246792 0.1478932 0.38961834 0.18061358 0.19119507 0.4649593 0.21009475 0.13726982 0.046371497 0.2924285 0.29566836 -0.1062419 0.5303126 0.2464251 0.33483273 0.31780553 0.29465303 -0.0054631946 0.08274959 0.06990076 0.050333194 -0.0037806034 -0.16333938 0.57622725 0.14374883 -0.014799186 -0.11122966 -0.10576049 -0.025858358 -0.004822433 0.014254943 -0.09820619 0.35059142 0.4623381 -0.03442423 -0.0019488297 -0.043101836 -0.12952873 0.32742882 0.39795777 0.3451893 0.24166696 0.22321193 0.22235629 0.294443 0.18569347 0.23089883 0.31398717 0.30521572 0.24936688 0.29195574 0.3103203 0.26660997 0.39920813 0.38136235 0.3657574 0.110886715 0.34321153 0.1700393 0.16827498 0.4795343 0.50204974 0.14530794 0.63890684 0.22160962 0.7355249 0.13135163 0.7300328 0.7590957 0.30368078 0.6016233 0.68195915 0.32689515 0.43815768 0.50669944 0.34976935 0.186644 0.3480909 0.2580991 0.30996078 0.30788738 0.31350207 0.33984697 0.38776258 0.30092412 0.3080566 0.32966697 0.36206985 0.45446926 0.4092617 0.3107641 0.20078851 0.32593286 0.4218736 0.09054111 0.37655583 0.32331005 0.3337046 0.33865067 0.2655 0.36026603 0.37431204 0.2775299 0.35679206 0.33907405 0.46114123 0.2961763 0.48900625 0.37150568 0.4476642 0.4454857 0.3777708 0.42672598 0.3682735 0.055010132 0.2830259 0.28227893 0.68273056 0.58389676 0.73373544 0.7526875 0.77578706 0.77252114 0.7859829 0.8055853 0.8043777 0.3138318 0.33717585 0.3531439 0.32636172 0.36976454 0.42190653 0.51055837 0.51666176 0.29477105 0.5779239 0.5740761 0.26901504 0.3190648 0.5603751 0.36121505 0.40977758 0.38885897 0.34520596 0.27544522 0.24108553 0.34155536 0.5039721 0.3971215 0.29508397 0.19831634 0.6293908 0.30097234 0.15745036 0.14902782 0.17676127 0.055247854 -0.14440545 0.42235947 0.33303082 0.30050117 0.13988516 0.19441584 0.40509328 0.05209947 0.014006235 0.14412712 0.1923692 0.21440327 -0.113260776 -0.1513663 -0.07549271 -0.09452344 -0.13448541 0.21621844 0.2108387 0.19324848 -0.07299931 -0.080878 -0.100714624 -0.112020254 -0.019525256 0.07263411 -0.0297096 0.0435642 0.1982809 0.020399002 -0.19914919 -0.08576401 -0.10439999 -0.111482754 0.0047325604 0.18192777 0.11783789 0.17512971 0.18106991 0.13665497 0.21059552 0.1931897 0.24515007 0.29196167 0.2519516 0.20592286 0.28081903 0.27169275 0.19735181 0.35279506 0.35312927 0.0016904213 0.33711 0.019906145 -0.013136053 0.3964459 -0.012944689 0.5976099 0.70659643 0.25356176 0.717525 0.3086805 0.53304374 0.63706625 0.3054489 0.31474575 0.42806482 0.45610183 0.49385855 0.33108646 0.30229217 0.3544513 0.35744226 0.39844263 0.36356 0.40187302 0.43776804 0.4284411 0.40123978 0.4908087 0.47613272 0.2665908 0.311814 0.37279648 0.38434213 0.52098763 0.47877714 0.3935985 0.33963972 0.16427219 0.050041668 0.18719812 0.004377585 0.03137924 0.06867434 0.24768718 0.22392356 0.1373715 0.044036165 0.14238796 0.09758517 0.036529507 0.16920768 0.27115902 0.04530069 0.45721936 0.3143136 0.25379696 0.48945093 0.48963255 0.44636166 0.49334985 0.48346585 0.13961738 0.23601021 0.35328653 0.405142 0.6698624 0.5468961 0.73258317 0.7730553 0.75713307 0.7334121 0.81331944 0.8262955 0.8062052 0.39722702 0.39032072 0.40660822 0.41633242 0.41674984 0.35550046 0.44226158 0.43203902 0.3745409 0.3313745 0.38275206 0.44035536 0.46043724 0.41973582 0.34426412 0.362831 0.38462895 0.45547718 0.4219282 0.36355135 0.26607722 0.27589867 0.39916688 0.40492827 0.41035128 0.1451397 0.19637851 0.29361197 0.31178457 0.31307828 0.35534102 0.13534385 0.23841034 0.2812279 0.42011324 0.15298007 0.3958562 0.4376938 0.28369486 0.22859314 0.3939442 0.38687366 0.27854216 0.29811856 0.2634952 0.15962285 0.29883605 0.37691194 0.35020524 0.33036885 0.24370801 0.7699907 0.23405819 0.14183645 0.14026573 0.0147485975 -0.099813946 0.069806546 0.26308608 0.1868 0.24982345 0.8218992 0.8250034 0.7157664 0.57034194 0.30922967 -0.146951 -0.07824165 0.02943635 -0.105444655 0.14635442 0.30459684 0.4307409 0.80763495 0.7760003 0.3170169 0.22286776 0.120562434 0.041451808 -0.14858529 -0.14003599 -0.14997235 -0.08275759 -0.2452863 -0.28776535 -0.3483956 0.47375762 0.5146192 0.5909614 0.01010859 0.005298648 0.14007153 0.041456036 -0.09764473 -0.094714075 -0.116596155 -0.17674378 -0.2031218 -0.322011 0.41918063 0.51096034 0.11397216 0.07182264 -0.08456759 -0.07134885 -0.07405619 0.104263455 0.13453035 0.14798684 0.03172006 -0.006378652 -0.21379545 0.14277868 0.14214021 0.2119844 0.22575451 0.21287797 0.10751103 0.25680685 -0.06979634 0.31431535 -0.074482836 0.3055554 0.13503022 0.3312516 0.07694588 0.44927967 -0.03240485 