# vtk DataFile Version 2.0
Really cool data
ASCII
DATASET POLYDATA
POINTS 7052 float
34.144264 85.08997 78.98921
34.104385 84.94742 79.52324
34.297737 84.78918 80.16195
34.253685 85.86824 78.096596
34.039387 85.5978 78.72106
33.88388 85.50685 79.50114
34.079327 85.49552 80.43839
34.208282 85.68169 80.781685
34.27814 86.379074 77.956245
33.967834 86.4065 78.57627
33.760094 86.46004 79.41545
33.82172 86.40045 80.12416
34.35389 86.92995 77.96701
34.085545 87.22982 78.658875
33.831352 87.5555 79.622345
33.886646 87.50352 80.30734
34.230816 87.54066 80.99743
34.19636 88.04533 78.94449
34.03498 88.24869 79.57097
34.125347 88.375435 80.37694
34.270847 88.13491 80.891235
34.25411 88.70914 79.62393
34.307766 88.75426 80.20371
35.042477 84.433556 79.129135
34.882862 84.32214 79.67957
34.773117 84.37693 80.10563
34.93691 85.183876 77.88745
34.70617 84.85989 78.53265
34.485523 84.51387 79.52519
34.647007 84.646095 80.4312
34.69626 84.895355 80.67704
35.05762 85.856155 77.30461
34.62961 85.716995 77.72179
34.733795 85.51753 81.03529
34.96114 86.540215 77.30534
34.569897 86.48414 77.58444
34.567997 86.68195 81.220375
35.0624 86.76845 81.67785
34.968517 87.02795 77.375015
34.59696 87.126335 77.736496
34.441208 87.71355 78.508835
34.63557 87.4729 81.46096
35.040794 87.48755 81.74653
34.927734 88.068146 78.22544
34.486794 88.02628 78.64851
34.761036 88.33788 81.19568
35.127277 89.02256 78.86917
34.478485 88.947296 79.632744
34.562244 88.88446 80.38355
34.848927 88.88231 80.8218
35.127483 84.406364 79.09685
35.07962 84.3252 79.32556
35.326 84.36277 80.11868
35.413036 84.9978 77.87332
35.678307 84.7405 78.476135
35.267082 84.56782 80.54566
35.570698 84.97892 80.9585
35.51434 85.745735 77.22316
35.374992 85.45396 77.41896
35.59167 85.90988 81.35279
35.47039 86.42029 77.085724
35.246212 86.651794 81.69653
35.291225 87.15417 77.27551
35.52765 87.53504 77.421646
35.6164 87.557335 81.93401
36.130157 88.116776 77.358795
36.020805 88.68451 77.71782
35.382236 88.46778 81.463196
35.601616 88.11568 81.713646
35.910686 89.5683 78.751114
35.337044 89.355675 79.34577
35.422573 89.41293 80.25667
35.598495 89.03827 81.003815
36.1708 89.751175 78.67103
35.87918 89.67443 79.65513
35.827904 89.673096 80.1573
37.27376 77.79241 51.803177
37.199646 77.79779 52.455772
37.260166 77.849846 53.093
37.33603 78.20374 57.705807
37.405502 78.12073 58.11611
37.419064 78.462906 51.132458
37.15902 78.54498 51.706444
37.031483 78.54099 52.4355
37.194016 78.49761 53.24525
37.250313 78.74066 57.058655
37.244473 78.62765 57.501392
37.31077 78.71582 58.284676
37.249237 79.227776 51.744713
37.16658 79.20843 52.54448
37.039906 78.91701 52.914066
37.300266 79.2274 56.982388
37.24732 79.41718 57.486824
37.24601 79.27802 58.084015
37.341255 79.92702 57.690918
37.332043 79.89821 58.19709
36.26752 84.93002 77.91294
36.793602 84.96075 78.42745
36.536785 85.548515 77.45539
36.678524 85.55865 81.385574
37.27431 85.9294 81.958275
36.93924 86.83887 76.875145
36.183224 86.7964 81.980705
36.575283 87.352196 81.93726
36.407436 88.50551 81.63679
37.13012 89.95875 76.70875
36.307484 89.44952 78.1205
36.65829 89.25066 81.139244
37.366108 90.21802 76.243805
37.32132 90.77723 76.34458
36.844936 89.92915 77.47791
36.787598 89.996 79.556335
36.60012 89.84894 80.215485
37.342617 91.12829 76.57435
37.22126 90.94126 77.1277
38.36582 65.02494 87.73341
38.335278 65.063805 88.25429
38.289852 65.48526 87.68222
38.24348 65.52532 88.2877
38.357788 65.66294 89.08597
38.332233 66.200905 87.714966
38.29128 66.21964 88.4
38.37866 66.15357 89.02905
38.305336 74.855804 82.719086
38.331345 74.77209 83.38378
38.310333 74.92028 84.38738
38.33341 74.79681 85.548195
38.283623 75.10477 86.18517
38.25269 75.28238 82.75606
38.180378 75.62086 83.4415
38.11296 75.56528 84.659256
38.01914 75.49347 85.21629
38.20864 75.50923 86.31261
38.26054 76.04484 87.11787
38.14956 76.89852 50.891197
38.033722 76.73217 51.514957
37.87382 76.91877 52.364727
37.97294 77.07325 53.020596
38.2397 77.39189 57.905994
38.212753 77.37485 58.30311
38.348213 77.0598 62.848564
38.408005 76.631996 63.82739
38.304478 76.74617 64.52019
38.375072 76.67146 65.15528
38.216755 76.21209 82.62189
38.321335 76.515175 83.520676
38.090443 76.30762 84.483444
37.93198 76.381584 85.52898
37.808147 76.802 86.463295
38.024853 76.67815 87.3285
38.27653 76.751884 87.97632
37.833767 77.59648 50.804825
37.50442 77.49138 51.6049
37.4398 77.42084 52.518764
37.573265 77.58689 53.358204
37.93125 77.96775 56.792492
37.75033 77.82896 57.576584
37.795486 77.85956 58.295742
37.933563 77.90595 59.256725
38.058052 78.07296 60.680595
38.330963 77.43843 62.61451
38.14126 77.36858 63.50173
38.188774 77.463715 64.45774
38.33704 77.48572 65.27196
38.345448 77.29339 84.51736
38.03572 77.44903 85.473816
37.678024 77.675964 86.60501
37.768528 77.51356 87.35994
37.992702 77.62778 88.08922
38.16543 78.36598 50.001205
37.692833 78.47244 50.69716
38.22147 78.725586 55.029503
37.92693 78.8047 56.01112
37.4698 78.52495 56.724884
37.593235 78.592865 59.615856
37.724697 78.54468 60.095585
38.097385 78.89939 61.79521
38.167637 78.45925 62.392155
38.106297 78.255424 63.69097
38.211464 78.28168 64.56048
38.302055 78.55512 65.00603
37.66987 78.13713 86.86614
37.814045 78.42903 87.45294
38.140102 78.46583 88.29327
38.14525 79.17592 50.10234
37.852406 79.43408 50.79823
37.46513 79.579834 51.563457
37.454338 79.15397 53.308167
37.635033 79.2141 56.149166
37.640484 79.72089 56.395912
37.6098 79.69861 59.33119
37.622425 79.48098 60.264656
37.82716 79.55087 60.978954
38.074173 79.53734 62.49517
38.052475 79.645004 63.47224
38.213036 79.445274 64.454926
38.371223 79.56978 64.894104
38.479713 79.93055 80.968315
38.41226 80.01531 81.1541
38.160137 79.05253 86.62011
37.987877 78.928116 87.50419
38.250805 78.85851 88.34522
38.187134 79.95618 50.85302
37.686134 79.961655 51.683548
37.843544 80.163895 52.48307
37.97995 79.83936 53.20691
38.038223 79.9269 55.799232
37.737446 80.170494 56.783703
37.625576 80.26345 57.619
37.660885 80.35381 58.51231
37.988014 80.47915 59.409184
37.76331 80.02062 59.95535
38.129528 80.30119 62.02296
38.05858 80.336464 62.474327
38.136673 80.48593 63.558884
38.23187 80.54942 63.932316
38.47508 80.109505 84.57095
38.112206 81.02082 57.30555
37.98317 80.70515 58.891876
38.40623 81.30255 62.333637
38.422684 81.33579 63.710545
38.41425 81.07259 63.874542
38.36115 84.02491 77.058815
37.668694 84.09674 79.57024
37.72419 83.88614 80.51045
37.989304 83.86704 81.28005
38.10113 83.60447 82.461754
38.2098 83.46604 82.98701
38.314857 84.56833 76.866325
37.762947 84.52562 81.79255
37.798294 84.58354 82.29977
38.279865 85.18235 76.6048
37.594303 85.56713 77.37649
37.91285 85.9729 82.28076
37.749626 86.79639 76.64696
37.938557 86.241684 82.289665
38.1501 86.22237 82.82353
37.55783 87.793915 76.5074
37.568386 87.644196 81.91934
38.113598 88.95869 76.0035
37.432934 88.02723 81.88953
37.710423 89.851234 75.917305
37.412014 89.748436 76.30529
37.54532 89.0689 81.2927
37.71681 90.49385 75.891266
37.3978 90.41702 78.72442
37.36857 90.27943 79.195114
37.275215 89.86586 80.43984
37.56231 89.64823 80.733734
37.828552 91.25566 75.91274
37.57653 91.5292 76.59988
37.668945 91.55477 77.37331
37.79113 91.1325 77.94556
38.053387 91.84925 76.11931
37.899044 91.87674 76.57454
38.020752 91.92106 77.28756
39.017796 64.32953 87.65798
39.026707 64.300644 88.31127
38.862865 64.90929 87.02028
38.660675 64.671455 87.61507
38.632927 64.72033 88.414444
38.80053 64.91646 89.11115
38.628334 65.54488 87.06784
38.62506 65.63805 89.401825
38.94907 65.6383 89.74624
38.79495 66.34644 86.989075
38.574245 66.52047 87.39589
38.458076 66.60102 88.544914
38.699383 66.422554 89.32667
38.989822 66.301 89.715485
39.444286 67.94283 65.76476
39.422096 68.07896 66.118935
38.972073 66.96765 87.08943
38.903847 67.165054 87.57122
38.647873 66.93536 88.457794
38.86339 66.94302 89.049225
39.38933 68.4141 65.6165
39.374832 68.539215 66.20076
39.383755 68.9268 65.93637
39.40344 69.059616 66.23458
39.10846 73.7536 81.69078
38.849464 73.99567 82.50939
38.862247 74.04617 83.20868
39.073097 74.002045 84.6418
39.009697 74.11921 86.075386
39.170708 75.341125 64.911835
39.23531 75.05056 80.46803
38.601917 74.83261 81.982315
38.605457 74.463425 82.49387
38.505928 74.34023 83.07958
38.450645 74.61334 84.7933
38.503815 74.52099 85.54184
38.48 74.923996 86.464905
38.98391 75.213554 87.2716
38.932602 76.172295 50.84131
38.71067 76.09562 51.582306
38.673843 76.17233 52.17054
39.013042 76.28027 52.705845
38.984577 76.19421 61.75796
38.9546 75.95784 62.779408
38.96928 75.79931 63.31837
38.66824 75.96932 64.5189
38.940327 75.81397 65.30566
38.994217 76.09979 65.86129
39.360653 76.05383 80.09556
38.932346 75.71514 80.86907
38.69512 75.491035 81.55689
38.721024 75.77788 87.49775
38.976395 76.027405 88.189575
38.88986 76.74794 50.184055
38.605907 76.60439 50.602608
38.424717 76.351 51.232033
38.37702 76.55377 52.57607
38.620155 76.79138 52.99222
39.129448 77.11029 56.99763
38.755894 77.14772 57.684757
38.668346 77.08719 58.39274
38.691845 77.10226 59.311237
38.775978 76.70214 61.83777
38.493797 76.720764 62.58655
38.5306 76.44517 63.30994
38.487476 76.21421 64.93578
38.5748 76.40812 65.52404
38.927917 76.68804 66.141266
38.85478 76.29963 81.09743
38.761127 76.74018 81.81063
38.603874 76.80305 88.40358
39.07576 76.69349 88.84037
39.02938 77.93412 48.9945
38.849686 77.43277 49.504272
38.81603 78.15386 55.240906
38.512737 77.62462 65.60719
38.78424 77.40824 66.09826
39.18624 77.94788 79.22716
39.03178 77.41044 80.17771
38.75076 77.50759 81.96371
38.51464 77.12902 83.48209
38.713528 77.84734 84.67382
38.391388 77.32812 88.59922
38.802307 77.64964 88.984505
38.919453 78.5016 48.927628
38.584915 78.35876 65.47043
38.92812 78.07857 66.0097
39.3646 78.804504 78.29152
39.16984 78.3771 79.39504
38.852615 78.24379 80.66
38.81135 79.036415 82.14332
38.38345 78.627 88.54545
38.658745 78.47499 88.83923
38.88325 79.18251 49.020405
38.481503 79.80387 64.6408
38.740192 79.42053 65.31906
39.078995 79.1963 65.78365
39.1936 79.869675 78.794975
38.884182 79.07738 79.60009
[...]
POINT_DATA 7052
SCALARS features_00 float 1
LOOKUP_TABLE default
0.7873071 0.7929652 0.766322 0.7084409 0.7865771 0.84062445 0.80160415 0.7548191 0.6428102 0.68899053 0.7822267 0.8422826 0.5837053 0.6100719 0.7051723 0.7489826 0.71298754 0.6054212 0.67295367 0.70465434 0.7064045 0.6496312 0.67842984 0.7099629 0.7414001 0.7496151 0.68504417 0.72768354 0.75784415 0.7447287 0.7241614 0.62257886 0.6801852 0.65839434 0.5802494 0.611171 0.6578585 0.5449735 0.540154 0.5529947 0.5514606 0.6539929 0.59532404 0.4885195 0.55047756 0.6787187 0.534433 0.63020706 0.6684926 0.666029 0.69689786 0.7081803 0.67278576 0.632469 0.6072028 0.68344986 0.600968 0.5804448 0.6146121 0.4680813 0.5397259 0.50888 0.50490195 0.4612044 0.5175606 0.3562231 0.36216933 0.627559 0.57176715 0.4563038 0.5469622 0.58814657 0.6199671 0.42482537 0.5074336 0.5350836 0.65079516 0.65600634 0.62034315 0.5113266 0.5017037 0.5865753 0.62347245 0.6490389 0.61028266 0.5064633 0.51515645 0.50119436 0.57807463 0.6240637 0.63790894 0.49307817 0.48864862 0.48699594 0.4466815 0.43741786 0.5093237 0.37759727 0.4217659 0.2365822 0.2069193 0.23676814 0.37135458 0.35154262 0.49198633 0.43563592 0.34713247 0.51222706 0.5139592 0.58966124 0.38040423 0.40281874 0.45033032 0.6293869 0.5711905 0.8232181 0.8216658 0.8199649 0.8187971 0.789594 0.78530717 0.78624195 0.76454806 0.31333423 0.32380253 0.359465 0.40300706 0.4082458 0.31952244 0.3263487 0.35408244 0.37468404 0.4048771 0.4056403 0.6211014 0.65285933 0.6513405 0.617513 0.41439655 0.40657854 0.43765485 0.5341934 0.5724421 0.6340771 0.2857147 0.26821357 0.3123551 0.3729369 0.44041395 0.4534675 0.4699574 0.6094235 0.64745474 0.6500503 0.57385135 0.48274875 0.48248604 0.47275245 0.44037724 0.2557488 0.381671 0.4425437 0.49853614 0.54778457 0.21292223 0.31816912 0.4877146 0.54038215 0.56542253 0.5080241 0.54366136 0.362329 0.46120363 0.49197936 0.414738 0.3491092 0.1778076 0.24732372 0.37399954 0.4153753 0.40425673 0.51193094 0.5529289 0.57609713 0.40378675 0.43612438 0.51764756 0.58178204 0.46213824 0.44071394 0.3785978 0.28721702 0.19259696 0.2338931 0.27882487 0.3183237 0.32645702 0.10998977 0.09360896 0.4296733 0.5231872 0.5517598 0.3364855 0.46272737 0.4644003 0.47101778 0.36315805 0.4057908 0.40532088 0.3720275 0.25784388 0.2653941 0.20228353 0.2378638 0.2458002 0.24718012 0.14487082 0.3001432 0.28492883 0.20779514 0.20609787 0.21942315 0.33753347 -0.065543376 0.04137043 0.12897384 0.17635195 0.20440085 0.29855365 0.22295731 0.28568348 0.18249163 0.07632285 0.2921299 0.030642785 0.2959058 0.35471618 0.0599684 0.27531028 0.3240471 0.32175192 0.4804086 0.4319442 0.38983607 0.5786541 0.37386954 0.35401583 0.39167026 0.36759835 0.6827538 0.6870666 0.6415887 0.5453902 0.748231 0.7326876 0.68627816 0.7805042 0.7722874 0.80187774 0.8112861 0.8062999 0.79376674 0.7944944 0.77072847 0.7323003 0.6999668 0.7382775 0.7504829 0.7028022 0.6587118 0.68260086 0.6882952 0.6361759 0.6699723 0.7161937 0.6620579 0.6875006 0.6956611 0.69152045 0.6904463 0.22149886 0.2656392 0.2757609 0.37097225 0.42356324 0.68530226 0.12695487 0.29076666 0.29210538 0.29705092 0.3790792 0.4054085 0.4053819 0.37359884 0.6073154 0.65581435 0.65289307 0.60708034 0.4197463 0.51564765 0.5741269 0.6541102 0.69624156 0.68507475 0.04688963 0.1688839 0.26445878 0.38850203 0.40184587 0.53802127 0.59121335 0.64760137 0.64517677 0.602422 0.30521736 0.34356463 0.32939374 0.2853062 0.40880305 0.45704663 0.52117836 0.6591445 0.67953104 0.66171324 0.15825593 0.18391825 0.4781079 0.47661722 0.45702767 0.49753296 0.36832833 0.5424721 0.5840499 0.061744966 0.04898526 0.069290146 0.1741608 0.13668296 0.53804487 0.55536425 0.42887098 0.4328497 0.46362874 0.12034908 0.103119895 0.06951119 0.03879355 0.56273866 0.56017435 0.36433318 0.30748218 0.32753545 0.31432584 0.12679207 0.15067652 0.12058121 0.07369854 0.04788836 0.023383558 0.096229225 0.36055884 0.52371836 0.5264661 0.21867913 0.26260644 0.18690678 0.004323138 0.27316242 0.27837634 0.07786695 0.13607986 0.020536859 0.03193998 0.17391126 0.25149074 0.3086396 0.36869913 0.28052923 0.2446039 0.17087835 0.09687249 0.13530302 0.14716013 0.22882354 0.009770766 0.11752621 0.2016379 0.1725797 0.09356732 0.03860652 0.040790416 0.08025566 0.22850445 0.26873377 0.28484333 0.41155753 0.39128003 0.43295053 0.389307 0.052216858 0.12866354 -0.04056275 0.07493931 0.08060513 0.15118879 0.10520461 0.34658206 0.30615628 0.17335698 -0.016530577 -0.08992343 0.043713987 0.04944049 0.06210617 0.08630016 0.5419811 0.5670029 0.60864574 0.017171815 0.10857267 0.13106924 0.12996817 0.10835796 0.086210564 0.256704 0.34350947 0.25437215 0.07886977 0.24381629 0.6968429 0.6974794 0.12982541 0.11731824 0.087946124 0.048836004 0.28940195 0.38630602 0.40375274 0.71241474 0.10112657 0.13928954 0.37742403 0.4071644 0.04921194 0.41580057 0.4163196 0.6741357 0.6856796 0.63175744 0.349666 0.38822067 0.77291185 0.81542814 0.83598876 0.8076682 0.7549637 0.48665226 0.54553163 0.5717515 0.8155572 0.86264193 0.9205934 0.8985669 0.8423557 0.56158966 0.6380765 0.6536564 0.69240355 0.49573103 0.40295616 0.3085817 0.8266455 0.8658555 0.90297246 0.8959631 0.6505043 0.7353486 0.7643937 0.74797785 0.62370217 0.30142158 0.23003562 0.6369983 0.71233 0.7663628 0.77546513 0.7554787 0.4643375 0.3363766 0.64096856 0.7991365 0.7797867 0.72021365 0.6179886 0.74059474 0.72335434 0.65001386 0.74817854 0.72343457 0.6739484 0.6795707 0.7167662 0.75141895 0.72477174 0.64848566 0.5816247 0.6356559 0.6412542 0.58433974 0.6651196 0.7333095 0.77559173 0.42736924 0.5995552 0.61070746 0.65997577 0.6701628 0.6105391 0.5180984 0.6175555 0.7108623 0.6945096 0.5202006 0.5420365 0.4453222 0.5284294 0.6314219 0.66996896 0.6777103 0.63148266 0.5238961 0.46116173 0.62638617 0.45379296 0.45595568 0.5151264 0.450753 0.5258189 0.6289247 0.6622139 0.67626023 0.6264701 0.48665625 0.557307 0.5986487 0.64262104 0.5704933 0.47602725 0.5623623 0.52118313 0.37626094 0.2757157 0.022203753 0.08873377 0.12607373 0.575199 0.54892623 0.4515919 0.23933466 0.026356563 0.1677683 0.19334474 0.17132209 0.5247365 0.5246508 0.4375162 0.2299487 0.0610869 0.018926859 0.13625386 0.22725457 0.23957942 0.3559218 0.37530598 0.6130944 0.66789854 0.6460248 0.3867218 0.39055964 0.31830722 0.001712136 0.10405288 0.34804916 0.31184664 0.5592946 0.6252539 0.62372303 0.0894018 0.26028278 0.44280446 0.49371648 0.5672486 0.6688695 0.5945942 0.10788499 0.05122888 0.012432372 0.36206222 0.44126248 0.4704812 0.52053344 0.292835 0.22023797 0.25682402 0.21121979 0.089526504 0.59971607 0.55647516 -0.051878735 -0.0812797 -0.037815385 0.51183754 0.5317671 0.4168883 0.38199246 0.5210287 0.50698614 0.14775196 0.15776607 0.06266585 0.561951 0.57505274 0.37601164 0.4085361 0.36699596 0.15990111 0.563856 0.5764048 0.23113805 0.29375732 0.23475142 0.12319371 0.13370353 0.4535672 0.52376 0.20864168 0.19216794 0.12029701 0.20536293 0.022333272 0.07296053 0.04786241 0.35637483 0.42132002 0.11904386 0.1932677 0.048935644 -0.03442189 -0.11329789 0.27750206 0.2579344 0.31604615 0.3568602 0.07104331 0.096677706 0.052964594 0.14316039 0.20218009 0.297816 0.24726057 0.27674592 0.2771663 0.42828622 0.47508767 0.57417524 0.03717058 0.043343373 0.028781358 0.19183257 0.24046431 0.24279247 0.21794322 0.6430538 0.6940779 0.71472 0.6542245 0.034825385 0.07648623 0.08417697 0.06433484 0.077646405 0.05125743 0.029055472 0.029743176 0.12660253 0.20858353 0.20301571 0.11396809 0.364051 0.6697944 0.6997663 0.71304166 0.70817316 0.2623696 0.0767656 0.11059131 0.07965148 0.041681334 0.048834696 0.030474495 0.034958437 0.01985393 0.01996594 0.028062332 0.09231957 0.11195699 0.16436632 0.4196882 0.67640036 0.5505349 0.41016436 0.0034409985 0.021526746 0.03975407 0.047475312 0.06273283 0.08178894 0.43473274 0.42869055 0.73841333 0.68836963 0.39185905 0.18039268 0.11724897 0.17826587 0.18671659 0.07112424 0.05337646 0.04446982 -0.0032884544 0.361891 0.4327401 0.75213224 0.7569349 0.63900423 0.3297134 0.32465482 0.3290691 0.30079204 0.20495942 0.07593513 -0.01243183 0.09355494 0.37797946 0.4302463 0.5366641 0.56694406 0.40612662 0.15611443 0.3259339 0.77757907 0.7411142 0.47510326 0.45900178 0.35046533 0.25700447 0.4175136 0.44486123 0.6067401 0.4490547 0.13061671 0.14223441 0.81340003 0.83115363 0.8607552 0.83763075 0.8239436 0.47736156 0.47327387 0.444085 0.2332256 0.21428947 0.43631396 0.68303114 0.19583757 0.21895288 0.8293445 0.46620703 0.48879611 0.56344324 0.7092699 0.74364734 0.46478146 0.4421613 0.51831037 0.5952161 0.5674889 0.80442953 0.81856614 0.726577 0.57989615 0.50349337 0.57174146 0.61493605 0.59957564 0.56932425 0.49801454 0.6547951 0.5060458 0.6084779 0.657251 0.6820607 0.68921256 0.5494982 0.3206499 0.4231427 0.5450148 0.5597206 0.5833704 0.64395535 0.71927106 0.374824 0.37285995 0.34701446 0.32812983 0.41874158 0.5271245 0.57303506 0.5462698 0.43535465 0.48014224 0.37500948 -0.08954154 0.18783596 0.34250203 0.28851247 0.37213123 0.38610148 0.3883767 0.30274516 0.30303222 0.37137493 0.06422699 0.29826412 0.48347557 0.43671998 -0.01293445 -0.0068924725 0.15581182 0.10172888 0.02977623 0.13651797 0.20014232 0.45395717 0.4941882 0.3846237 0.2250014 0.33346155 0.29852453 0.15647942 -0.06850043 -0.052524105 0.0297724 0.07875014 -0.036976747 0.11395384 0.14711134 0.43118078 0.4333744 0.47462302 0.53578895 0.5198672 0.45723903 0.272655 0.21601894 0.08891868 -0.03557194 0.02901693 0.08722232 0.5448273 0.020064052 0.01020078 0.06046313 0.47501287 0.43296212 0.22407442 0.24889156 0.18220618 0.52203 0.5692204 0.60181546 0.2076226 0.25688088 0.22126845 0.5084976 0.56707346 0.54702437 0.115841635 0.052473586 0.32951483 0.3882408 0.5789691 0.48417264 0.01440189 0.1510256 0.34990555 0.35814726 0.36371946 0.38733995 0.0042463094 0.1685268 0.17325561 0.040930856 0.32237396 0.057173632 0.5273571 0.35373455 0.059343267 0.56200415 0.13202263 0.30896538 0.11373012 0.5743414 0.23965827 0.06110128 0.32389116 0.35882515 0.35657454 0.24147436 0.027058873 0.08406767 0.33902326 0.4912166 0.53867996 0.1175677 -0.04193596 0.21062574 0.32581678 0.36707294 0.3426832 0.26405668 0.0018904917 0.20702222 0.20795605 -0.18132037 0.10024424 0.12390441 0.2958632 0.34159046 0.29453996 0.24964175 -0.06795989 0.26635617 0.3590241 0.029711723 0.08143024 0.14043485 0.20558697 -0.029088669 0.27693984 0.39532107 0.46582228 0.36670306 -0.022053923 -0.08798333 0.23157978 0.19933976 0.081605904 0.19554277 0.41179764 0.48575407 -0.10421845 -0.014727116 0.19626608 0.15360664 0.04051045 0.0012734979 0.30031285 0.121488616 0.5099218 0.58618176 0.6559932 0.6477287 0.32567298 0.11554554 0.08962058 0.11181059 0.06743024 0.020872347 0.37867603 0.65392363 0.64457667 0.6166852 -0.08569257 0.051031217 -0.03712091 0.08446389 0.10818073 0.09699886 0.018009022 0.38946903 0.41934437 0.75145614 -0.0058955997 0.34450912 0.38769928 0.38669568 0.4472827 0.046251126 0.13419521 0.28807664 0.7127649 0.5578753 0.043723583 0.36339197 0.07358709 0.49213415 0.15224026 0.11612979 0.76954305 0.7662312 0.76303005 0.7503076 0.70692325 0.31861237 0.4085128 0.4499961 0.6711152 0.23045558 0.81009346 0.4263117 0.44263658 0.43426317 0.34108603 0.40744784 0.7125527 0.38988766 0.43034774 0.36989665 0.46887195 0.50469506 0.44939622 0.7300869 0.7528528 0.79682875 0.6964419 0.56739575 0.41827783 0.44454506 0.45473492 0.47960693 0.48023933 0.5107164 0.48392874 0.47657353 0.47192597 0.6117531 0.64591646 0.6643759 0.5367864 0.44345403 0.3284155 0.25322735 0.5696385 0.5942229 0.6607866 0.3963126 0.23865284 0.24497753 0.15383294 0.35846058 0.40294978 0.40545046 0.40091032 0.32239679 0.270327 0.30917683 0.25391287 0.3268245 0.36135393 0.37265992 0.006047517 0.16089176 0.24377365 0.29530314 0.33031836 0.21472842 0.3080184 0.025663694 0.06664954 0.21261662 0.35857284 0.37113643 0.21834944 0.17947483 0.027227135 -0.020283576 -0.089915395 0.3204401 0.38190717 0.39562282 0.41519433 0.13293697 0.04003427 0.18241177 0.25054964 0.20991549 -0.15208918 0.35216957 0.36439186 0.36347306 0.34325403 0.3372961 0.329423 0.36088622 0.35811636 0.32114068 0.006597571 -0.015595937 0.48551625 0.44185618 -0.38015324 -0.061186343 0.010254715 0.16593562 0.25085044 0.31711718 0.37069076 0.3708135 0.24970564 0.45263785 0.13334467 0.28710595 0.3683023 0.06998002 0.1146343 0.050530344 0.094411366 0.08126272 0.109207034 0.12277037 0.28493917 0.33499563 0.34175083 0.0667745 0.088544555 0.107985996 0.056569967 -0.04917358 0.3233158 0.45926285 0.43620116 0.23898777 0.21086943 0.09802857 0.08936544 0.117347464 0.05560422 0.021927435 0.24669506 0.38462448 0.29682836 0.26617113 0.39021888 -0.0072812513 0.21802032 0.08089204 0.0390029 0.0826936 0.0035705082 -0.09756778 -0.13116546 0.46376947 0.323801 0.17376 0.018910043 -0.012935586 0.012513027 -0.03158502 -0.12232702 -0.059977528 0.49105316 0.3655461 0.32055473 0.16587953 0.18127061 0.23140438 0.069075555 -0.074890085 0.5134799 0.43192995 0.34717995 0.048153296 0.21225905 0.12444655 0.04217978 0.45067593 0.27555463 -0.103086255 0.035545304 0.16310042 0.04472799 -0.21212947 0.10710596 0.39592016 0.26938516 -0.12209867 0.07209945 0.014108695 0.22206983 0.24267364 0.32602733 0.13003278 0.2481235 -0.06590925 -0.00915904 0.23214163 0.26264015 0.36277378 0.15891123 -0.23223808 -0.23436132 0.17820969 0.08590642 0.03894811 0.121245705 0.23115185 0.35129866 0.3971658 -0.075539455 0.046385724 0.09774184 -0.013251226 0.022195 0.36435267 0.4762773 0.5699978 0.47652268 0.2884092 -0.04984293 0.00822781 0.23875502 0.58249825 0.6986134 0.058266297 0.24251889 0.34396356 0.74418235 -0.12192908 0.12003755 0.29054838 0.6225424 0.17542896 0.39315432 0.066465534 0.6848699 0.66561425 0.55064124 0.35212237 -0.04762265 0.24198885 0.2577434 0.6736386 0.54156995 0.50085956 0.44117004 0.27054548 0.33930275 0.39366278 0.22738168 0.63297486 0.633224 0.34692916 0.3998104 0.40858638 0.09212061 0.23729935 0.6866995 0.69470525 0.40638408 0.43942285 0.41083422 0.39938334 0.046310626 0.16983652 0.30948806 0.30491957 0.70075566 0.66523147 0.6429093 0.31070152 0.36091766 0.40692222 0.3642243 0.44472423 0.48307747 0.49760604 0.4688975 0.4060468 0.2620514 0.407021 0.3710482 0.3535838 0.3631699 0.3983025 0.4379346 0.44352955 0.2772057 0.57526004 0.6316619 0.61167204 0.18344076 0.26429996 0.2126446 0.25701916 0.33349484 0.36425698 0.30149728 0.21991906 0.32302773 0.40390438 0.4054545 0.22092198 0.19178502 0.40265247 0.4064446 -0.02586595 0.108556256 0.19581826 0.3704656 0.15114902 0.10602546 -0.08171812 0.034862243 0.26499563 0.15592185 0.06411758 0.095110394 0.10380463 0.08425652 -0.08131896 -0.083185256 -0.04193283 0.31378835 0.052120358 0.041259713 -0.031216968 -0.13614768 0.21730179 0.33499205 0.36313647 0.0037629008 0.0030831397 0.33269104 0.32004908 0.29522017 0.26088482 -0.060117174 -0.07746223 0.07678277 0.35439608 0.33750895 0.12724428 0.09906858 -0.22022364 -0.18585213 -0.045458317 -0.07313593 -0.104457766 -0.41299787 -0.11913943 0.35624322 0.35464793 0.015110331 -0.12498436 -0.054242693 -0.01770293 -0.0075061982 0.009596288 0.039448347 0.1731711 0.18199399 -0.056740534 0.06446019 -0.10356696 -0.20541415 -0.018367127 0.059906714 0.10812414 0.13319899 0.1885073 0.07560897 0.1496218 0.15690853 0.03376517 -0.050544392 -0.16869247 0.07136251 -0.10302694 -0.3228418 -0.025885394 0.062406156 0.12753682 0.31994858 0.18643862 0.055233326 0.15751582 0.34304494 0.12373737 0.24627273 0.5045629 0.43929294 0.41540033 0.5035109 0.49992114 0.11199629 0.4281084 0.20352665 0.14417124 0.3559513 0.2742629 -0.042825922 0.043068346 0.21689844 0.24674492 0.24993622 0.060470745 -0.05630517 0.09845754 0.26880342 -0.20314305 -0.20996855 0.08822892 -0.046385795 0.30005234 0.3480809 0.43533087 0.22017044 -0.07815448 0.69276226 -0.12151689 0.7206737 -0.034730762 0.5201327 -0.07815859 0.0006893873 0.52924395 0.33209947 0.41287744 0.1466441 0.034698777 -0.007867351 0.19033465 0.13148254 0.22711472 0.28383842 0.16482118 0.10984914 0.23876092 0.18959594 0.3253678 0.32450476 0.34891838 0.6789168 0.4240737 0.45894352 0.36138636 0.36278167 0.1310527 0.12158737 0.25846612 0.23317708 0.30725032 0.30058533 0.13218628 0.32702938 0.3115706 0.20690191 0.18146227 0.45252955 0.46432847 0.4918632 0.54892147 0.6299621 0.6429274 0.5815661 0.50126654 0.49761367 0.47804362 0.25242972 0.23185211 0.38723817 0.42721784 0.51181877 0.5711284 0.5526487 0.54317975 0.538778 0.52157116 0.431561 0.4685952 0.45918253 0.43086496 0.21071851 0.22633073 0.28137854 0.3386078 0.2231215 0.30255252 0.37704128 0.4358393 0.3678354 0.54521424 0.43708968 0.3131401 0.20841195 0.2773389 0.18782473 0.21409717 0.2515684 0.36817706 0.36954898 0.24608131 0.15759555 0.0140621215 0.40073028 -0.34408385 0.15500244 0.24590674 0.15925927 0.38515538 -0.087360464 -0.08710945 -0.058875956 -0.3082451 0.11663614 0.12318883 0.109518334 0.1744498 0.1308735 0.17627546 0.14687638 0.0016782843 0.06340405 0.13631395 0.1772344 0.14337678 0.020575227 0.22989592 0.034097232 0.26526412 0.2630762 0.34300148 0.31957117 0.07262695 0.18408269 -0.24030061 0.30431682 0.27150905 -0.0736391 -0.1438811 -0.2666903 -0.23432428 -0.20176388 0.22384858 0.23207563 0.38267487 0.301427 0.18975945 0.1573724 0.08302011 -0.07877419 -0.058617633 -0.04482516 -0.17269528 -0.019147974 -0.071405314 -0.3522996 -0.36294237 -0.25252718 -0.21302186 0.2053617 0.14220425 0.01685509 0.002919659 0.2979316 0.16189033 0.086983 0.13481185 0.52310956 0.4898107 0.40128326 0.12907991 0.55267525 0.044688687 0.0668814 0.56859165 -0.09052585 0.52911115 0.099808194 -0.14048997 0.46284828 0.116185844 0.39482218 0.14886846 0.26233935 0.25519127 0.034019012 0.20971042 0.21644393 -0.22803268 0.09562927 0.20118457 0.17155656 0.16805421 0.15363587 0.011057802 -0.08487031 0.16568337 0.12482896 0.070000455 -0.0014106967 0.034448046 0.0582434 -0.11630784 -0.22189629 -0.1447046 -0.1306873 0.0002853498 0.17729302 0.24756907 0.06384841 0.040340714 -0.026232205 0.007656835 0.16967912 0.12543117 -0.17138843 -0.21258491 0.005151063 0.2123434 0.16622737 0.1446925 0.090052724 0.19374345 0.17336893 0.34476656 0.35158247 0.07025823 0.16988003 0.20380737 0.39773703 0.39007962 0.32754743 0.1846616 0.13234241 0.4064697 0.35332122 0.26514578 0.55659056 0.63558483 0.67111695 0.39175552 0.40142244 0.38735557 0.34159818 0.36786774 0.46961167 0.5344702 0.62302184 0.665328 0.62323815 0.6427327 0.63932514 0.5983007 0.5285672 0.40023476 0.4691981 0.1884793 0.21372212 0.3300286 0.36278194 0.41291618 0.34049165 0.41283545 0.41232646 0.6044349 0.5950129 0.56336915 0.44805342 0.3471455 0.25657892 -0.09449753 -0.06123852 0.34089935 0.3647411 0.39138404 0.41643238 0.21849613 0.27080804 0.5793285 0.53558975 0.16676602 0.12994772 0.33413446 0.37261242 0.1709507 0.32811606 0.4740876 0.36708128 0.016526848 0.20685877 0.12222144 0.13302588 0.24900205 0.079590954 -0.30616397 0.1673338 0.11363633 0.018044408 0.03441362 0.12894438 0.057109274 0.16863619 0.0017850394 0.17194648 -0.038359385 0.17099425 0.12845717 0.27876756 0.46390712 0.4287576 0.25290883 0.46270895 0.42735136 0.34634978 0.1992339 0.11111858 0.036803953 -0.09267421 -0.13569994 -0.12338981 -0.1569549 0.09094283 0.36922204 0.04236442 -0.1009343 -0.12161834 -0.045232624 -0.03317614 -0.16175763 0.12790452 -0.19268993 0.32243448 0.07554436 0.009764951 -0.069284156 0.5348667 0.4907351 0.4078825 0.553725 0.08525976 0.5285839 0.12107245 0.17066017 0.48786324 0.101960264 0.18594088 0.26547527 0.4461544 0.28302595 0.30522636 0.3501437 0.15792926 0.27948198 0.16280596 0.23673597 0.2608795 0.23900232 0.12404881 0.11443704 0.1962356 0.24874735 0.16434765 0.09629207 0.07487886 0.185669 0.060901478 0.13130529 0.09444989 0.091025755 0.11971308 0.09518656 0.15377878 0.15039833 -0.2868287 0.03967959 0.108780675 0.15301318 -0.027893916 -0.22268553 -0.13650787 0.14836869 0.23040046 0.17681584 -0.03994509 -0.097860776 -0.14402413 -0.052286454 0.08286017 -0.0931441 0.07865168 0.06612137 0.35890818 0.18080808 0.19193046 0.17175844 0.40045887 0.120907925 0.074736714 0.41147655 0.40771836 0.32120496 0.29624724 0.28133237 0.31105927 0.28383267 0.2625967 0.24405581 0.18726616 0.18025813 0.17776296 0.27866682 0.32888287 0.3431555 0.5152839 0.58183616 0.6011543 0.57882226 0.56548274 0.49476963 0.33477986 0