# vtk DataFile Version 2.0
Really cool data
ASCII
DATASET POLYDATA
POINTS 5571 float
-22.543089 8.53078 23.539928
-22.543312 8.569939 23.99447
-22.542862 8.925397 23.739855
-21.798254 7.113252 23.080454
-21.93151 7.155148 23.385635
-21.817957 7.0724344 24.053715
-22.00774 7.7807374 22.75946
-22.316845 7.801949 23.365734
-22.165104 7.861584 24.320938
-21.78053 7.7650127 24.824347
-21.649971 8.512639 22.088768
-22.055883 8.534548 22.61822
-22.474579 8.373193 23.477884
-22.343876 8.522178 24.294107
-21.770384 8.467645 25.025478
-22.069101 9.199208 22.831976
-22.326447 9.258099 23.63184
-22.201588 9.244811 24.235462
-21.812193 9.134113 24.852617
-21.743277 9.881327 23.037558
-21.910347 9.8229 23.700459
-21.782387 9.78996 24.158146
-21.002214 6.431066 23.521852
-21.007181 7.0300446 22.422884
-21.549732 6.7458963 23.504313
-21.546843 7.059811 24.423985
-21.30238 7.709511 22.08585
-21.490072 7.4068236 22.390669
-21.28065 7.678472 25.203468
-20.814184 8.905502 21.353987
-21.134962 8.623577 21.602995
-21.246395 8.244004 25.40318
-20.826536 9.185285 21.374205
-20.955132 9.433152 21.645908
-21.655285 9.576151 24.658594
-21.284618 9.189229 25.145447
-20.902258 9.977867 21.866001
-21.226608 10.122366 22.51727
-21.48534 10.215171 23.500742
-21.423803 9.91165 24.373146
-20.757202 10.379669 24.782316
-20.876463 10.755556 22.975674
-20.78527 10.87869 23.483215
-19.565474 4.0058203 27.268726
-19.568579 4.094428 27.94828
-19.625454 4.3770695 27.490942
-19.607483 4.6728 27.885406
-20.79163 6.4293365 23.389668
-19.638634 5.3816605 27.579367
-20.401821 6.5798774 22.752813
-20.453392 7.4027424 25.528412
-20.387108 7.8328533 25.700026
-20.248981 8.50068 21.06105
-19.885246 8.53588 25.808498
-20.444025 9.171596 21.136353
-20.68742 9.443387 21.401224
-20.738249 9.217591 25.439735
-19.874056 10.156648 21.314184
-20.483885 10.264939 21.858633
-20.667793 10.593591 22.436523
-20.542719 10.64342 24.583117
-20.086432 10.531539 25.003534
-20.098469 10.695386 22.078197
-20.095633 11.090276 22.6781
-20.324064 11.219902 23.480639
-20.194597 11.046344 24.374155
-18.913399 1.85487 26.62651
-18.858953 1.7922437 27.39342
-18.739592 1.9392229 27.865294
-18.765816 2.4987276 25.814716
-19.162981 2.3847663 26.862684
-19.175385 2.5444179 27.501865
-18.937174 2.5601816 28.042143
-18.564985 3.6349602 21.7271
-19.152681 3.3059 26.128017
-19.338661 3.2269025 26.685823
-19.210104 3.705035 28.220049
-18.561367 4.233481 21.999239
-18.612251 4.138269 22.19294
-19.369154 4.595515 26.430662
-19.28516 4.593181 28.362978
-18.980381 4.7375097 28.626358
-19.467472 5.1183662 26.76488
-19.3902 5.672728 27.576279
-19.311192 5.2499475 28.207531
-18.85333 5.4596286 28.67497
-19.389666 6.7830834 26.494673
-19.461678 5.866976 27.508106
-19.581696 7.9715104 21.123854
-19.750557 7.3529716 21.6922
-19.424992 7.0462112 26.450304
-19.276617 8.671309 26.02499
-19.748138 9.270866 25.551466
-19.21231 10.112628 21.025442
-19.223589 10.492348 21.455418
-19.75706 10.654745 25.090767
-19.41708 10.829586 21.943268
-19.505135 11.277416 22.716915
-19.66695 11.444252 23.526388
-19.53486 11.329692 24.247791
-19.5854 10.891497 24.950642
-19.67336 11.540096 23.730585
-18.033407 1.2553267 26.119198
-18.318645 1.3375368 26.65671
-18.242538 1.2584506 27.249529
-17.779581 2.1194274 21.626547
-17.941032 2.235119 22.366058
-17.93465 1.8187902 25.238031
-17.965702 1.411861 25.50687
-18.533575 1.5359961 26.478058
-18.26888 1.4298855 27.708326
-18.37578 1.7939438 28.054007
-17.821913 1.8701446 28.645508
-18.074507 2.8156893 20.984858
-18.275583 2.854453 21.565428
-18.151577 2.6204395 22.52084
-18.128288 2.8205986 22.903986
-18.577055 2.1761618 25.890108
-17.921518 2.3751209 28.825106
-17.690098 3.894251 20.012678
-18.08901 3.5903528 20.57125
-18.463428 3.2519612 21.672619
-18.496296 3.6888754 28.805758
-18.115177 4.4999385 20.850948
-18.459417 4.0282803 21.300665
-18.09621 4.487579 23.572424
-18.497332 4.2059712 28.86844
-17.643581 5.3339667 20.168095
-17.740906 5.2751412 20.67523
-17.880842 5.608929 21.31772
-18.31121 5.380319 28.792942
-18.679897 6.831012 21.260544
-18.453049 6.422845 28.343723
-17.663544 6.7585387 29.79133
-17.784279 7.8686786 16.79244
-17.922474 7.8639035 17.455917
-17.709105 8.550226 16.17521
-17.95621 8.44529 16.637833
-18.104141 8.303803 17.287304
-17.724817 8.724291 18.397776
-18.71332 8.665881 26.456415
-17.677027 8.4744215 28.54565
-17.67773 8.125839 29.234781
-17.889492 9.377396 16.632677
-17.80969 9.689044 17.275953
-17.924124 9.247084 17.965315
-18.477243 9.315603 20.30571
-18.218674 8.99257 26.070381
-17.688753 9.958939 16.661983
-18.320814 10.102962 20.519812
-17.876535 10.941383 21.523365
-18.401062 11.267475 23.60626
-19.037018 11.319779 24.328909
-18.779657 10.782304 24.929287
-18.996656 11.507482 23.55461
-17.255732 0.9564005 25.58492
-17.194078 0.8067266 26.856028
-17.304588 0.9697045 27.302324
-16.84985 1.8274454 20.092945
-17.17318 1.779542 20.79706
-17.249634 1.736095 21.271757
-17.594381 1.9208728 22.305016
-17.096895 2.193461 23.917538
-17.05365 1.6901734 24.425562
-17.604105 1.5672363 28.32848
-17.425926 2.023429 28.764978
-16.70457 2.9398894 19.175234
-17.433975 2.7884822 20.052826
-17.566282 2.5796437 20.346653
-17.307262 2.5404158 23.723396
-17.585163 2.212918 24.667048
-17.253328 2.5862312 29.012333
-16.84285 3.402858 18.992002
-17.451828 3.4002757 19.613235
-17.677174 3.0744088 29.066269
-16.9241 4.4047623 18.728825
-16.860037 4.2336454 29.482668
-16.884283 5.227642 18.671045
-17.333826 5.5513425 19.532978
-16.849861 5.669558 30.750017
-16.922306 7.2501745 16.520107
-17.545404 7.370118 17.154045
-16.644608 6.2293563 18.93317
-17.356916 6.778668 30.445269
-16.886892 6.4458704 31.279701
-17.379906 7.9058676 16.049103
-17.478365 7.5284824 16.604042
-17.36493 7.4164705 17.897882
-17.022995 7.6045403 31.368502
-16.783047 7.6002264 31.698582
-17.318426 8.638377 15.785425
-17.487312 8.448398 29.72305
-17.243734 8.187725 30.48762
-16.904451 8.143685 31.240725
-16.711401 7.9170985 31.670204
-17.256857 9.361055 15.829097
-17.44216 8.663219 27.477427
-17.213808 8.951822 28.8402
-17.207207 8.952029 29.253311
-16.898146 8.734341 30.454178
-17.14972 9.992188 16.066755
-17.278461 10.317909 16.456327
-17.43209 10.3005295 17.32029
-16.789055 10.3075 18.677568
-17.027328 10.583069 16.934628
-16.797522 10.824322 17.31392
-17.02121 10.674912 20.069128
-17.535868 10.703467 20.364214
-17.226131 11.254707 21.686602
-17.61384 11.319401 22.190136
-17.514263 11.358051 23.582045
-16.752552 11.232024 25.913614
-16.84136 11.771831 23.746279
-16.12503 0.007383138 25.710814
-16.002005 0.17956485 26.359571
-15.713623 0.1845438 26.808308
-15.926695 1.1319139 20.120148
-16.189686 1.0671296 20.63617
-16.293495 1.1310853 24.186327
-16.413332 1.0615523 24.596706
-16.609432 0.54401094 25.627743
-16.625626 0.81630945 27.243347
-16.283707 1.056317 28.09932
-16.32119 1.5799053 19.901793
-16.580812 1.6034615 22.284147
-16.227806 1.7009579 28.591188
-16.243258 2.6337795 18.993944
-16.97253 2.5228097 29.090414
-16.591648 3.620285 18.712835
-15.954953 4.731268 17.589071
-16.267307 4.7018766 30.17032
-15.946251 5.021637 31.28138
-16.299467 5.672814 31.554758
-16.0303 5.5382423 31.811861
-16.23923 7.222428 15.962218
-16.601295 7.1788516 16.353548
-15.928866 6.2287803 17.508455
-16.586235 6.2559576 31.540396
-16.266546 6.6932173 31.982588
-16.704094 7.988259 15.605116
-16.439798 7.5191507 31.9081
-16.245441 8.544318 15.196169
-16.292763 8.410125 31.520378
-16.402195 9.285935 15.322028
-16.59949 9.586522 15.444054
-16.438595 9.427206 27.24351
-16.192526 9.385728 28.424248
-16.36263 9.264415 29.46324
-16.513985 8.932388 30.343369
-16.20152 8.693709 31.17101
-16.56085 10.468266 16.16006
-16.716152 10.529243 16.422703
-16.589605 9.95646 26.60791
-16.510002 10.706298 16.580332
-16.090788 10.970207 17.466305
-16.072536 11.191664 18.147493
-16.564005 11.570053 20.964314
-16.121233 11.6743765 26.063158
-16.482656 11.877973 21.707859
-16.2929 12.214316 22.862186
-16.449688 12.224094 23.647314
-16.215479 12.365992 24.857424
-16.192926 12.340848 25.286665
-16.127575 11.971188 25.912052
-15.762831 12.853457 24.484108
-15.751802 12.738777 25.336906
-14.657431 -2.0219452 24.894676
-14.754294 -1.9283191 25.235493
-14.829135 -1.3241678 23.658268
-15.037827 -1.0775375 24.21876
-15.41803 -1.075554 25.676596
-15.4521475 -0.7556965 26.164343
-14.840414 -0.7376142 26.961649
-14.925656 -0.7174951 22.828304
-15.117148 -0.5084071 23.51594
-15.321557 -0.64754367 26.705694
-15.14646 -0.5140638 26.828232
-15.521559 1.3331051 19.757526
-15.157691 0.88036036 20.453304
-15.466365 0.6579888 23.198797
-15.615458 2.0707462 18.982855
-15.291329 1.4980502 19.47718
-15.582028 1.4711235 28.34869
-15.08278 1.6469703 28.637438
-15.167739 3.0310729 18.108274
-15.583045 3.9210517 17.706625
-15.457774 4.257258 30.71873
-14.57259 4.895246 15.535511
-14.921755 4.696672 17.008732
-15.394045 4.428974 31.05534
-15.348446 5.035374 31.817118
-14.635723 5.2262263 15.432123
-15.47783 5.721646 32.204624
-15.382382 6.41756 32.340794
-15.289336 7.5897775 15.224963
-15.789877 7.302469 32.141384
-15.356274 8.624224 14.942189
-15.247012 7.970507 31.819036
-15.588838 8.987637 15.031586
-15.68287 9.661318 26.60343
-15.629766 9.379501 27.971773
-15.981906 9.251844 29.597017
-15.656381 8.984593 30.181242
-15.592021 8.654462 31.212442
-14.698346 10.110839 40.77451
-14.650457 9.9254675 41.388897
-14.913733 10.160008 15.445976
-14.749382 10.91539 39.8322
-14.812446 10.337333 40.692455
-14.90201 10.588077 41.29467
-14.706059 10.687316 41.878338
-15.013275 11.24564 16.574612
-15.54578 11.478229 18.12002
-15.650991 11.54186 26.322939
-14.649413 11.741158 39.16201
-14.945744 11.615042 39.83544
-15.13951 11.920904 40.339252
-14.988362 11.370575 41.44582
-14.8554 11.931162 41.736767
-15.022094 11.682016 17.692728
-15.175151 12.060672 20.372387
-15.602182 12.423941 21.989653
-15.048433 12.505859 22.14082
-15.684302 12.533464 25.641819
-15.293629 12.249808 26.02308
-14.904054 12.405022 39.5975
-15.124718 12.725253 40.624184
-15.004764 12.288774 41.425842
[...]
POINT_DATA 5571
SCALARS features_00 float 1
LOOKUP_TABLE default
0.79406726 0.7846432 0.7760166 0.73360384 0.75528634 0.77336633 0.75333935 0.7889502 0.7881347 0.7511922 0.67201126 0.7522452 0.79722786 0.77161455 0.7086151 0.74469966 0.75558925 0.7386324 0.69486177 0.6956277 0.7081896 0.69033813 0.68073404 0.63864744 0.7289462 0.76588607 0.64290965 0.68509763 0.65371156 0.5341605 0.57852155 0.61139953 0.5303227 0.54974806 0.66988367 0.62034655 0.5441256 0.6130576 0.6710237 0.65330005 0.5920725 0.6097175 0.62938416 0.52459306 0.5150441 0.49138328 0.46470225 0.6602677 0.39832425 0.6045149 0.39669663 0.39196575 0.48266715 0.34945852 0.47934744 0.5105517 0.5273031 0.42545927 0.5056867 0.5565954 0.59776044 0.539624 0.48608816 0.5348257 0.60300016 0.58872056 0.54535985 0.5970796 0.6014283 0.43681794 0.5855801 0.61732674 0.6079932 0.4149409 0.52348876 0.5753238 0.5447759 0.38689902 0.3894694 0.45225012 0.46551624 0.44366792 0.4071461 0.3543105 0.40714246 0.37084603 0.101921014 0.32429624 0.42633808 0.44541493 0.07975843 0.26070294 0.3913648 0.34134802 0.34879303 0.51647174 0.40267 0.47964734 0.5455743 0.5445168 0.5272167 0.54892826 0.40933788 0.5043147 0.54441005 0.39807522 0.3032424 0.24543619 0.29652673 0.5020309 0.563735 0.57453656 0.50548136 0.43650725 0.42100942 0.31941152 0.27229065 0.42929223 0.49668837 0.3704725 0.40967256 0.41931865 0.48393768 0.3543549 0.39978582 0.27250776 0.4423274 0.24435061 0.24268416 0.1687851 0.3466661 0.05474969 0.21281308 0.34782743 0.6069546 0.59371006 0.69890845 0.68627006 0.6597233 0.6233323 0.11639744 0.3683641 0.44699717 0.72807276 0.6697513 0.68468285 0.25070974 0.100889176 0.63908327 0.20247492 0.16679992 0.35496306 0.4946862 0.43238902 0.4567626 0.26823026 0.39075714 0.44748467 0.46511388 0.45417577 0.419991 0.27037975 -0.0074449023 0.05705136 0.50178766 0.4575034 0.39434862 0.42086577 0.4352702 0.025332807 0.099269025 0.3867103 0.3633825 0.38044086 0.40250075 0.30467564 0.14599034 0.23351838 0.22853644 0.38297182 0.48188192 0.51045084 0.12650585 0.48696652 0.5380647 0.6092129 0.5601376 0.4220236 0.6437246 0.68278927 0.6885332 0.5280155 0.59818643 0.672851 0.70526093 0.6882322 0.13151705 0.44176537 0.49084193 0.6141863 0.6089362 0.5663829 0.52023727 0.26443326 0.4728304 0.38906994 0.0366584 0.086144045 0.13360101 0.163566 0.14238632 0.22950652 0.17802688 0.20440742 0.20493522 0.18645544 0.42727292 0.4113776 0.052017502 0.12407214 0.2443106 0.3255796 0.33840287 0.46310073 0.17452466 0.345532 0.41202104 0.34182572 0.3455935 0.18189692 0.21819098 0.3849889 0.4874127 0.51284987 0.43889698 0.44363183 0.06420317 0.55058336 0.6546803 0.5936291 0.7193227 0.5612906 0.72275776 0.55810297 0.5726167 0.12716936 0.39102054 0.51355386 0.60792077 0.6934644 0.48443693 0.4811458 0.02509424 0.42674708 0.30763188 0.23675579 0.115790814 0.4246177 0.15941814 0.22255452 0.26925638 0.4850235 0.5043156 0.4777839 0.56827164 0.5985179 0.36814982 0.36271927 0.33458248 0.31130603 0.25702247 0.212984 0.20493762 0.3025152 0.26753893 0.20486757 0.19765557 0.41367018 0.32506582 0.04443209 0.43433988 0.4016981 0.22396657 0.1186517 0.36297876 0.2640733 0.26581407 0.047451332 -0.04479438 0.30887687 0.5150393 0.09028834 0.6492728 0.734712 0.37255144 0.7800461 0.37805593 0.8029675 0.423988 0.1751208 0.3033449 0.52957153 0.6044975 0.73361063 0.63638103 0.6396774 0.35966268 0.56357217 0.62947965 0.6209503 0.59530616 0.28194085 0.21590534 0.42600262 0.46481055 0.5539875 0.59826577 0.60392153 0.5854689 0.2170266 0.13381028 0.21351239 0.26404235 0.5909192 0.58420914 0.5144644 0.58363724 0.5973083 0.51907945 0.7218307 0.69418913 0.7009419 0.51608783 0.5668726 0.5467554 0.36493957 0.36680248 0.3568535 0.3385402 0.35864413 0.37100327 0.36578172 0.31818697 0.28390336 0.31544623 0.34770125 0.28746617 0.22709155 0.37995702 0.3647325 0.3667011 0.20037262 0.2731951 0.15248677 0.1073879 0.39593023 0.3870654 0.39117938 0.32853904 0.27619138 0.053131685 0.5745839 0.39908838 0.40511382 0.32436955 0.016177014 0.4670524 0.542361 0.37337667 0.33186257 0.29813498 -0.062316164 0.45935225 0.5310023 -0.019459829 -0.116528735 0.1828696 0.122566104 0.51605874 0.11365333 0.26939654 0.20914418 0.754877 0.24042986 0.7691115 0.20285365 0.1995012 0.59722716 0.7524172 0.3778419 0.67321026 0.24943824 0.26228386 0.34302816 0.5873989 0.6305448 0.64083195 0.6223991 0.32929662 0.33827654 0.42362735 0.50089335 0.5881012 0.40596187 0.5374359 0.49815112 0.20269547 0.18214335 0.18975896 0.14915012 0.16764851 0.75534517 0.3171001 0.40172535 0.49903136 0.7438774 0.8237978 0.82913965 0.79619586 0.3286177 0.5245417 0.46534362 0.47110808 0.47540185 0.36628646 0.45596036 0.44124246 0.46029407 0.5548909 0.47141394 0.6344865 0.6217321 0.3097957 0.6769594 0.6319875 0.35665905 0.35221288 0.33701804 0.30702817 0.33535302 0.29828972 0.3451957 0.32213652 0.36894917 0.38304484 0.30126846 0.30129027 0.29449096 0.3193314 0.09189507 0.28964427 0.36191243 0.38035363 0.3555783 0.35104904 0.13800538 0.09408026 0.22392313 0.31194812 0.3277058 0.33068156 0.5313711 0.59198904 0.648889 0.40671903 0.42398036 0.396344 0.37229526 0.36326176 0.30918804 0.08738315 0.17425334 0.2510804 0.20812118 0.3825954 0.50136846 0.5824969 0.6570245 0.6659266 0.43243873 0.4355561 0.39285558 0.34282914 0.11627485 0.19832917 0.16774724 0.23317648 0.30660206 0.5766942 0.6279677 0.64296067 0.42750597 0.4074309 0.36627316 0.30599892 0.2093907 0.14061618 0.110863626 0.43143147 0.53990376 0.59001774 0.6173431 0.2538519 0.22897825 0.48232526 0.49242228 0.5285437 0.5982106 0.113567755 0.5013309 0.21361497 0.74872833 0.1845881 0.21737322 0.31626108 0.47241956 0.17014852 0.18331523 -0.068778515 -0.044307515 0.33943507 0.5024109 0.11287486 -0.22908828 0.013313048 0.29918385 0.5933523 0.630285 -0.08002262 0.53474164 0.58899033 -0.09596462 0.4005701 0.42139274 0.5038235 0.504467 0.021653272 0.54594934 0.25245258 0.30213523 0.57993144 0.56946677 0.46359488 0.18391143 0.20277753 0.30057812 0.82787144 0.83158606 0.5896051 0.5640737 0.5101045 0.23765853 0.20047449 0.49907842 0.6962596 0.8473239 0.87766623 0.1712009 0.40185618 0.2821946 0.21146202 0.41233376 0.44566682 0.56395864 0.5565201 0.49571323 0.4818992 0.61255765 0.6237049 0.6369226 0.65970814 0.64922065 0.663336 0.6550948 0.6677035 0.6881893 0.70452887 0.70945024 0.7895399 0.81107473 0.7979418 0.7177017 0.26235664 0.6169369 0.70869035 0.75580233 0.73457825 0.6332567 0.2568445 0.25673214 0.23251 0.242962 0.26680344 0.5418509 0.64380187 0.696411 0.6310662 0.49703655 0.4134786 0.2850514 0.3032903 0.035923332 0.14831537 0.18515855 0.21035944 0.25201797 0.3086207 0.34383473 0.35048214 0.49902835 0.42735413 0.586048 0.36844146 0.264264 0.03347805 0.13839453 0.2277667 0.3358285 0.36599982 0.3700183 0.32954076 0.25012705 0.24645668 0.058461115 0.20404924 0.3122367 0.26462868 0.2602764 0.2860984 -0.0992088 -0.017800197 0.053993396 0.20698634 0.4450095 0.595538 0.6592245 0.6428282 0.3837248 0.23086433 -0.021060226 0.6444968 0.59864634 0.39408758 0.40592897 0.13728863 0.03656789 -0.54467714 -0.41558748 0.6222736 0.58917785 0.40016073 0.40705985 0.03512586 0.12868682 -0.08035532 -0.32531595 -0.34812853 0.5857018 0.55619997 -0.6456533 -0.050723277 -0.09482754 0.38369095 0.5329519 0.52302694 -0.02011396 0.37891224 0.37240312 0.4810895 0.45105034 0.034399904 0.059868574 0.39296335 -0.020862304 -0.058898274 0.12985858 0.31592155 0.61350644 0.54684395 0.53645885 0.09957555 -0.013954479 0.028653353 -0.10363019 0.124705404 0.22452207 0.63380677 0.687119 0.665382 0.29616502 0.4391631 0.5077488 0.6583692 0.67092246 0.3478797 0.35800815 0.49725604 0.49891654 0.5314207 0.27492315 0.24617887 0.40487128 0.45557484 0.19995525 0.5258682 0.4717871 0.49171913 0.48781657 0.51655346 0.51206416 0.15924788 0.4981559 0.50303507 0.54998124 0.5701244 0.121817194 0.16971627 0.18958844 0.43931592 0.5830496 0.6850355 0.7296145 0.17096059 0.4100696 0.5704688 0.58866704 0.5921048 0.55948323 0.4921772 0.22454636 0.25612566 0.26822934 0.23672733 0.1996009 0.5450227 0.47445476 0.2344197 0.35485888 0.47035003 0.35172695 0.38011903 0.32281852 0.559573 0.41343787 0.62041545 0.64505684 0.56988275 0.65818405 0.67819023 0.70658135 0.7278117 0.71249044 0.7117343 0.7261013 0.43991768 0.53188354 0.7908887 0.8270184 0.7997156 0.68855715 0.31623876 0.34532946 0.43786782 0.4312746 0.2481632 0.6169605 0.71414196 0.5889028 0.44880474 0.20957685 0.17550364 0.21555641 0.24346933 0.24392432 0.26167774 0.30782554 0.27463868 0.53651905 0.3954831 0.21910363 0.23334002 0.15768781 0.31196433 0.32045966 0.26832843 0.19385329 0.29174724 0.3156895 0.28516805 0.124314204 0.22155967 0.20495638 0.058480777 0.1389601 0.07292306 0.09791909 0.085994154 -0.18214858 -0.058296286 -0.05481243 0.5667493 0.57845736 0.5927901 0.2775863 -0.21818997 -0.19237718 0.58059645 0.5626335 0.3233852 -0.16783163 -0.6611899 0.52699745 -0.3956129 0.5127512 0.14199659 0.42459124 0.46721223 -0.057581022 -0.035392363 -0.15729822 0.10985557 -0.06358515 0.04938063 0.35906205 0.22832647 0.06209028 -0.18295223 -0.19499384 -0.31543183 0.16212022 0.13572437 0.15259051 0.10689937 -0.018066682 -0.009956159 0.5885073 0.42586637 0.43136704 -0.07789498 -0.20913845 -0.13304362 -0.06533814 0.020998128 -0.015099727 0.23881067 0.22409837 0.16728531 0.050356437 0.040741697 0.58415395 0.018879835 0.24422571 0.2248824 0.083130985 0.07015142 0.31961805 0.5735455 0.56837094 0.6192119 0.62117743 0.55354124 -0.009894181 -0.115673676 0.51611745 0.5670309 0.59140456 0.5661988 0.30753627 0.4410637 0.5422547 0.5412101 0.4912166 0.5164236 0.16060182 0.5020907 0.5199244 0.55213434 0.0846234 0.21734418 0.05844064 0.4663005 0.5761937 0.5875837 0.38416865 0.24878284 0.07784434 0.16047904 0.22894716 0.24991268 0.23023567 0.26634568 0.5856889 0.5561781 0.48045 0.37833214 0.29737198 0.15870832 0.36420205 0.46519542 0.24408115 0.5507263 0.34650445 0.5966651 0.55641663 0.6044276 0.6276129 0.6643262 0.6885249 0.6518726 0.7038039 0.6910125 0.5371392 0.5738888 0.5742365 0.7713225 0.39800215 0.5035607 0.55853504 0.56100297 0.23066169 0.7419217 0.7622435 0.7619545 0.6400367 0.32868317 0.37112927 0.23160774 0.24401514 0.24563262 0.25014296 0.28215194 0.663905 0.556212 0.3953005 0.2756204 0.28522053 0.28069657 0.23877493 0.45725963 0.2818038 0.44290766 0.43848544 0.32381797 0.20956403 0.22644594 0.22212625 0.32955164 0.21389672 0.17166209 0.45378047 0.14536081 0.11899556 0.20308453 0.5199126 0.47183585 0.17592528 0.4577935 0.4200489 -0.023287661 0.3020118 0.05660847 0.2847822 0.1168094 0.13269666 0.29651892 -0.013423822 -0.21713196 -0.06618829 0.053049274 0.14756963 -0.2451368 -0.12807052 0.0049084947 0.02684839 0.07697447 0.56515944 0.20814629 0.32903776 0.35938835 0.34894764 0.06874714 0.5554127 0.6555392 0.42532533 0.35459602 0.39501137 0.6481695 0.62268215 0.21934547 0.3945443 0.33968017 0.40914118 0.49694404 0.5603628 0.3848636 0.50828004 0.5283074 0.5775106 0.27775916 0.19748598 0.2007829 0.45770013 0.5796102 0.5529994 0.23994581 0.100950435 0.20397532 0.24450152 0.17163582 0.47972155 0.43029487 0.36170128 0.28329003 0.34138834 0.14484881 0.43868113 0.5120118 0.3669506 0.40369213 0.5209886 0.50013894 0.51128864 0.5555115 0.5876911 0.63570434 0.5984939 0.57071435 0.55126035 0.5873933 0.56907827 0.33868134 0.42148703 0.5028141 0.5288346 0.49819112 0.23542422 0.38024604 0.42189255 0.5064814 0.64870954 0.6055367 0.57690877 0.53591764 0.25289056 0.28357416 0.18849596 0.279324 0.470949 0.37135437 0.39179745 0.20309007 0.26119077 0.20106314 0.40788233 0.4224149 0.4374224 0.15633702 0.12064773 0.032101125 -0.021259628 0.4472069 -0.05717402 -0.03673216 -0.29934976 0.32940045 0.3077544 -0.36596084 0.30273336 -0.05072903 -0.33802456 0.35751495 0.82275045 0.8086155 -0.029796587 -0.043744847 0.8348235 0.8114915 0.24288113 0.17651892 0.0456147 0.25414953 0.34604305 0.8433225 0.8281373 0.16749889 0.1773575 0.13425106 0.113562316 0.48650646 0.37577778 0.043990083 0.054675378 -0.20028633 0.030858338 -0.013274416 -0.1138688 -0.049603324 0.60834944 0.6448969 0.55767626 0.5199292 -0.043094136 0.0073058233 -0.36247495 0.15285343 0.6199062 0.6688217 0.67160153 0.56813234 0.5525849 0.5111106 0.3495652 0.10266985 0.48874405 0.20860326 0.3160753 0.6658585 0.13762592 0.2003885 0.5289331 0.30474672 0.6147972 0.17050125 0.18994752 0.51197785 0.5652065 0.51040363 0.5525769 0.5145459 -0.09250781 0.39810914 0.47135383 0.5048181 0.27842358 0.20912616 0.14671768 0.2505356 0.3024645 0.40922022 0.22602832 0.42920882 0.3784412 0.35060123 0.2519791 0.1648655 0.034976352 0.46818772 0.42630678 0.5279661 0.53329253 0.4938451 0.49558657 0.57520115 0.56834674 0.5407559 0.48370856 0.27826822 0.44947478 0.42115015 0.19522527 0.41236004 0.4746604 0.50335383 0.40944567 0.20427026 0.23426071 0.4288324 0.36239305 0.18287423 0.18958911 0.23342696 0.3543389 0.29991668 0.27291253 0.0077530295 0.20149001 0.26647282 0.10342412 0.21870178 0.20290138 0.24929616 0.24435703 0.2961773 -0.18575458 -0.06102699 0.3738646 0.24750227 0.11224367 0.09797854 0.11053583 0.039672837 0.29348564 0.031181328 -0.04963164 -0.0203963 -0.032478668 -0.17857704 0.24613503 0.80161595 0.050785936 0.37058246 0.8392451 0.8248364 0.7781352 0.73718154 0.24151948 0.20510355 0.16331911 0.40347987 0.8492988 0.8410748 0.77660656 0.7544534 0.22850248 0.25615162 0.39850795 0.8535223 0.85513824 0.8378844 0.8064226 -0.0981722 0.83769476 0.8474556 0.11172679 0.056207605 -0.14116752 0.48384523 0.41006958 -0.036473677 0.06730959 0.04347913 -0.15871146 -0.12566072 -0.17862916 0.39123064 0.6242858 0.5548936 0.55286163 0.17589164 -0.09166771 0.65157634 0.5719303 0.5732162 0.5519303 0.45280063 -0.006440632 0.039221656 0.6445059 0.6630138 0.5708227 0.5547532 0.5118332 0.065741576 0.620738 0.5971114 0.62877405 0.4800237 0.32131714 0.16447368 0.21015207 0.5743027 0.61273533 -0.18236914 0.5255265 0.26290578 0.28198877 0.34367505 0.3076158 0.5053846 0.56599844 -0.11337848 0.47520977 0.35987937 0.34374225 0.38458088 0.31432468 0.33736834 0.24024364 0.18373014 0.3372114 0.38291854 0.46609908 0.24444698 0.3247563 0.30038676 0.17916957 0.037633546 -0.027027613 0.15081896 0.28190565 0.4151684 0.3768381 0.34989458 0.46211153 0.43060452 0.540745 0.5294755 0.51609457 0.49064806 0.532723 0.1971783 0.35440058 0.5121226 0.4728729 0.4416991 0.20287597 0.4124336 0.47600693 0.5013267 0.54823434 0.54903615 0.23514271 0.1877278 0.10246462 0.12275579 0.4284022 0.3633511 0.29638553 0.2486164 0.18352069 0.18616712 0.24039412 0.2850537 -0.002791211 0.25595015 0.38769567 0.33395898 0.12512699 0.06762718 0.43996546 0.4928354 0.50547737 0.44237733 0.38596103 -0.14170817 -0.00855314 0.43684042 0.46201152 0.4136235 0.40674394 0.3948884 0.33505443 0.24178922 0.32792297 0.37096104 0.05628319 0.22469026 0.07478464 0.8100995 0.79611695 0.75491256 0.64134705 0.09965719 0.36532366 0.84542894 0.4939034 0.41242057 0.8546551 0.44294935 0.17658466 0.39154541 0.81574774 -0.08192282 0.3176623 0.7046821 0.727167 0.110892944 0.7473314 -0.40893364 0.072282925 0.030303538 -0.15479922 -0.18476945 0.46486527 0.5319884 -0.2907294 0.15991738 -0.15842238 -0.054733127 0.00686064 0.48753604 0.55084145 0.6280565 0.5571934 0.47460616 0.5457046 -0.001603391 0.06681736 -0.13535541 0.6129633 0.5509432 0.5456259 -0.13550678 0.58458334 0.5147635 0.47295302 0.4039454 0.6469737 -0.0032017776 -0.057525195 0.52994174 0.155808 0.2378852 0.14996545 0.51924336 0.5875137 0.22605959 0.14888851 0.05438999 0.431122 0.33334962 0.3894037 0.41489398 0.39218134 0.37857136 0.2524646 0.25066265 0.2117945 0.32093278 0.3821944 0.44425502 0.47726503 0.3607766 0.15085112 0.46821234 0.46733052 0.14879787 0.090285935 0.2877343 0.36431944 0.5256927 0.55119854 0.50844043 0.5612607 0.5760183 0.5642461 0.14985362 0.1335229 0.2347877 0.19701856 0.029054344 0.06271364 0.09979269 0.10223359 0.5168831 0.41259295 0.4233161 0.33413553 0.09768603 -0.10786722 -0.0220466 0.5085322 0.5138975 0.46542543 0.44906354 0.10694119 0.20018286 0.18251655 -0.20400429 0.5289416 0.5266478 0.4655919 0.4605996 0.12464967 0.13688892 0.12532291 0.041897044 -0.1748148 0.51810616 0.41107374 0.46197674 0.4294964 0.4058993 0.25086957 0.33161724 0.7206553 0.6950255 0.033305213 0.25948775 0.29068187 0.77846503 0.75757694 0.699728 0.4973835 0.33692414 0.041657537 0.36186337 0.7991296 0.12432608 0.39866978 0.7719479 0.60249054 0.11916648 0.23245093 0.5614804 0.5084493 0.06710493 0.45766377 -0.10305941 -0.11513252 0.3974879 0.17216763 0.2958802 0.12356818 -0.06220513 -0.099469766 0.38408512 0.5086168 0.41882315 0.4894005 0.40829214 0.5000562 0.52618265 0.55992025 0.06574985 0.06632857 0.44576687 0.5130093 0.4823254 0.4222988 0.5634657 0.6145936 0.070329115 0.437747 0.17996061 0.12434673 0.18020548 0.17186756 0.14750168 0.11927093 0.3713873 0.42603755 0.46661443 0.53524005 0.6006491 0.3503201 0.36059058 0.42362088 0.38105392 0.20166607 0.35926688 0.40187544 0.43932378 0.24408826 0.44294634 0.45407784 0.43545812 0.5118563 0.49813956 0.23024929 0.2330972 0.54974174 0.54723084 0.100717366 0.55152345 0.43502775 0.24555267 0.30191386 0.22689806 0.16948704 0.79573065 0.7908951 0.7539687 0.7256359 0.7064568 0.7907579 0.7289755 0.67402226 0.6992456 0.69349575 0.60208416 0.5099304 0.5617658 0.19573137 0.5223739 0.5435937 0.57303905 0.25095087 0.33183342 -0.007796049 -0.04200524 0.20231044 0.1874664 0.39746583 0.44386202 0.5325337 0.5243726 0.052411355 0.05135887 -0.12258957 0.10357075 0.13076442 0.42492148 0.50410193 0.4622653 -0.081209876 0.16837764 0.21266606 0.19421643 0.1292132 -0.100613765 0.47355282 0.537087 0.53766406 -0.20552637 0.1272527 -0.04609664 -0.25756234 -0.28514084 0.5339444 0.53102756 0.43468416 0.5044754 0.4596188 0.3027368 0.441406 0.22034855 0.39593685 0.6590376 0.60272133 0.464432 0.28196356 0.67476577 0.6585213 0.31522217 0.28257203 0.3197009 0.6999484 0.28243983 0.13359125 0.085344315 0.3379335 0.5958892 0.32569626 0.36104393 0.4889037 0.4427964 0.42762965 -0.19376248 0.37100562 -0.33537626 0.026476253 0.056222204 -0.15945531 0.044680405 -0.056198224 -0.07875979 -0.22404021 0.48990476 0.3546008 -0.04994496 0.1535198 0.3205554 0.51142424 0.39332056 0.48310465 0.4944052 0.065923594 0.063275516 0.2039637 0.49922085 0.43464643 0.3407104 0.1088444 0.45325145 0.4868639 0.51388514 0.084999435 0.2829908 0.27867535 0.011081371 0.1815544 0.060028356 0.112715386 0.14376038 0.14123382 0.40292716 0.4413748 0.4797182 0.14508672 0.30157155 0.29919025 0.35979185 0.16946466 0.4799664 0.32040802 0.2927474 0.42064354 0.47479045 0.4594264 0.41116115 0.5208923 0.2813512 0.2930333 0.26942343 0.56051993 0.56551147 0.13394922 0.23997362 0.58054125 0.5808118 0.5444703 0.3914643 0.20909353 0.13674234 0.8725358 0.89006054 0.8209621 0.74792504 0.8527962 0.8579581 0.84371537 0.7997925 0.7221318 0.6786088 0.80043375 0.798767 0.64247835 0.534232 0.5015148 0.42942813 0.026556257 0.36970052 0.20492558 0.21787131 0.3922119 -0.07424871 0.14317447 0.23938176 -0.2966979 0.15826954 0.20680575 0.42081213 0.40842032 0.28575012 -0.10582124 -0.1441726 0.17629568 0.10481983 -0.055889264 -0.31138974 0.06328232 0.3124305 0.44539973 0.51364326 -0.22190614 -0.2071007 0.14701815 0.029671073 0.5186445 0.5243875 0.33864427 -0.12217937 0.46965307 0.5141146 0.18628776 -0.30865413 0.4597153 0.13937409 0.43126935 0.5607027 0.56566155 0.44652802 0.2664103 0.6110432 0.54871243 0.5888995 -0.25347033 0.5551074 0.4633379 0.17174591 0.4232111 0.4038288 0.33301285 -0.23295027 0.02632413 -0.23443839 -0.24722491 -0.25223935 0.0466306 0.0046726353 -0.09017707 0.43562496 0.45053357 0.113872334 -0.0916907 -0.054318585 0.44655812 0.05763655 0.039672166 0.088955164 0.2537697 0.20249991 0.20421325 0.34659132 0.3062607 0.08742242 0.08886668 0.12071494 0.1109169 0.27475086 0.1652043 0.002449192 0.21599163 0.16536711 0.06493546 0.042496942 0.36971062 0.20550981 0.3099382 0.33973527 0.31509218 0.43847594 0.35719818 0.42745888 0.43447393 0.43001938 0.55091274 0.25782567 0.33585227 0.3286556 0.56462646 0.59079224 0.60989106 0.6424686 0.55705285 0.48501933 0.36465293 0.57984483 0.6019553 0.87141323 0.8946558 0.8272408 0.71658707 0.8420967 0.8659968 0.68335664 0.63534427 0.65877163 0.65614563 0.75544894 0.5401597 0.3944689 0.5691124 0.5902772 0.62727416 0.6397728 0.6