# vtk DataFile Version 2.0
Really cool data
ASCII
DATASET POLYDATA
POINTS 4196 float
-19.76847 6.9095864 34.69219
-19.797316 7.111569 35.17928
-19.910374 7.7311 34.047855
-20.11457 7.788354 34.5906
-19.955976 7.620411 35.247658
-19.782078 8.231548 33.79789
-20.083563 8.526894 34.670517
-19.983631 8.554024 35.356968
-19.74395 8.440067 35.744217
-19.809116 9.287277 34.616043
-19.842613 9.129277 35.255093
-19.732227 8.89872 35.684814
-19.076908 6.3897743 34.705517
-19.266953 6.7788143 33.873363
-19.437027 6.6792808 34.52151
-19.254082 6.7171054 35.172855
-19.066305 7.09354 35.750893
-19.018013 7.6146555 33.240726
-19.489853 7.5003552 33.638985
-19.377434 7.5932574 35.809933
-19.457018 8.418322 33.474205
-19.355558 8.635989 35.96102
-19.424963 9.187004 33.806427
-19.518654 9.533173 35.362865
-19.354807 9.194547 35.77788
-19.225084 9.954764 34.512894
-19.216982 9.78712 35.24031
-17.94014 5.824626 33.474045
-18.414572 6.0473485 34.32341
-18.186056 6.356006 35.094646
-18.19456 6.5408816 32.935173
-18.481632 6.5099483 35.15361
-18.658365 6.9587593 35.684334
-18.382984 7.788089 32.72437
-18.586065 7.430089 35.91248
-18.517296 8.360706 36.072414
-18.357025 9.386714 33.034107
-18.810493 9.144586 36.045326
-17.582779 11.118452 29.499971
-18.017733 10.409698 33.245712
-18.87201 9.72362 35.61097
-17.645487 11.770245 28.99206
-17.779476 11.962125 29.987562
-17.871298 11.057252 34.01683
-18.24511 10.739341 34.308372
-17.75217 12.325695 29.474874
-17.725807 12.527832 30.068197
-17.616137 12.88209 30.020765
-17.310705 5.969939 32.89406
-17.347986 5.631258 33.522087
-17.41094 5.69337 34.150345
-17.21641 6.6193647 32.40615
-17.64631 6.587583 32.567158
-17.547035 6.792955 35.367817
-17.220377 7.1179056 32.232754
-17.625542 7.741106 35.90638
-17.377453 9.600252 32.081146
-17.610674 9.11418 35.952297
-16.80985 10.982226 28.270056
-17.163815 10.870978 28.798338
-17.246664 10.689113 29.430252
-17.03585 10.050662 32.23175
-17.033506 11.505967 28.319456
-17.4822 11.434973 28.745113
-17.429594 11.206399 30.127424
-17.302979 11.302677 34.52884
-17.686213 10.912328 34.888287
-17.036434 12.407481 28.24897
-17.45626 12.46812 28.772467
-16.718578 11.924185 32.838436
-16.950306 13.174733 28.667768
-17.252583 13.318891 29.802603
-17.168463 13.211432 30.317305
-16.87767 13.567691 29.75855
-16.560722 15.419325 26.406576
-16.654627 5.978688 32.919186
-16.70011 5.709991 33.593185
-16.668673 5.8077908 34.198696
-16.847525 6.177571 34.813797
-16.70409 6.97147 32.25964
-16.630177 6.443322 34.95454
-16.62787 7.293703 35.41521
-17.087564 8.063549 35.824554
-15.751879 10.259972 28.259428
-16.508308 10.12382 29.443676
-16.444195 10.875646 28.123213
-16.758165 10.459883 28.769995
-16.081743 10.216542 35.625763
-16.146496 11.530286 27.784475
-16.390291 11.592879 34.98383
-16.145538 12.175006 27.587734
-16.441824 12.035682 34.3534
-15.946741 12.159318 34.764652
-16.179014 14.264742 26.4149
-15.867975 12.908424 32.941463
-16.05201 12.759986 33.372677
-16.33617 14.65123 25.787104
-16.49638 14.904019 26.465631
-15.966275 15.4678955 25.171227
-16.33304 15.531458 25.665142
-16.492228 15.804122 26.361572
-16.168978 16.177944 25.635176
-16.269974 16.358229 26.470928
-16.112078 16.342665 27.285189
-15.850511 16.947058 25.75141
-15.763169 17.11373 27.099316
-15.784188 6.2230606 33.127228
-16.139883 5.944268 33.85502
-16.000668 6.183912 34.114113
-15.360591 8.006961 31.795027
-15.2243185 9.204566 31.042276
-15.619381 8.352897 35.304417
-15.106138 10.228388 27.523392
-15.393152 9.758011 28.454498
-15.448861 9.775552 35.561485
-14.9251585 10.822743 26.711365
-15.707602 10.379961 28.002972
-15.716764 10.127873 35.540203
-14.886119 11.769721 26.309805
-15.138688 11.273451 26.630869
-15.675055 11.061821 35.441544
-15.35785 12.269914 35.065117
-15.487508 13.634393 25.760036
-14.928319 13.383543 32.458595
-15.513275 12.928875 34.197453
-15.266134 14.60549 25.031221
-15.449891 14.46848 28.985449
-14.708017 13.681646 34.201538
-14.95176 15.555045 24.422852
-15.270602 15.810124 28.349392
-15.472258 16.270887 24.952229
-14.711485 17.665024 24.392416
-15.420518 17.366112 25.81282
-15.491262 17.475897 26.603527
-15.472629 17.393692 27.323778
-15.422331 17.01305 27.93373
-15.079533 17.890419 26.661072
-14.96579 17.87366 27.226349
-13.819883 8.340194 28.878016
-14.129741 8.719936 31.285017
-14.6722145 12.269092 35.518497
-14.567858 13.691467 34.754612
-14.382193 13.465265 35.222984
-14.011587 13.250892 35.73324
-14.425163 14.298714 30.953459
-14.219776 14.117869 34.484093
-13.827315 14.301974 35.017273
-14.785026 16.666433 28.503235
-14.526999 17.768557 23.874214
-13.803033 18.153053 22.81444
-14.080552 18.461496 23.61669
-14.359077 18.598972 24.78329
-14.497005 18.477234 25.642988
-14.180671 18.316149 27.281427
-14.433126 17.871202 27.79004
-13.878227 19.1991 24.76619
-13.794247 19.251457 25.297892
-13.999457 18.803713 26.649431
-13.008268 7.13793 29.228077
-13.063535 6.970578 30.8172
-13.214489 7.725556 28.692167
-12.562761 8.64393 23.36303
-12.949789 8.313104 27.91332
-12.548499 9.444252 22.806353
-13.6524515 9.550336 34.878994
-12.6186905 9.906887 22.995502
-13.184979 10.819351 25.416506
-12.894575 11.7378235 24.848108
-13.994526 11.1343355 35.231144
-13.064737 12.604497 24.556137
-13.248138 12.7399845 35.887875
-13.004741 13.713241 24.525202
-13.426827 13.566258 35.88438
-13.765303 14.529541 33.572117
-13.23572 14.292879 35.57795
-13.281976 14.002951 35.816376
-12.752194 15.837191 19.406145
-12.7258835 15.788157 20.38601
-13.489425 14.626955 34.35702
-13.2358 14.625357 35.11382
-12.907135 16.824144 18.997152
-12.937756 16.466156 19.604004
-12.987077 16.664108 20.373505
-13.731948 16.463766 29.059242
-12.78703 17.38335 18.909588
-12.948703 17.309893 19.37593
-12.969921 17.27427 20.084202
-13.438566 17.84073 22.370539
-12.789759 17.899702 19.402779
-13.528096 18.614773 27.591923
-13.133553 18.542347 27.79571
-13.122391 19.136274 23.153286
-13.301679 19.438683 23.865925
-13.47516 19.566628 24.513891
-13.437256 19.506487 25.453304
-13.407712 19.305206 26.262177
-13.24914 18.974937 27.183594
-12.979986 19.71472 23.829576
-13.184733 19.806576 24.783497
-13.015828 19.812477 25.320404
-12.973755 19.572138 26.062654
-11.707594 7.364275 23.812551
-12.642166 6.9319096 28.977474
-12.148378 6.641322 29.667225
-12.21794 6.6325207 30.64079
-12.295405 6.5937414 31.388256
-12.054231 8.058551 22.743998
-11.979472 7.702263 23.255367
-11.967118 7.737281 24.007853
-12.013461 8.544557 22.190792
-12.386241 8.688823 22.604326
-12.441375 8.388924 23.388895
-12.4050665 8.868972 24.67017
-12.174901 9.068468 25.31917
-12.1170635 8.3586645 32.94618
-12.249279 9.308766 22.274054
-12.247487 9.629387 22.359623
-11.931914 9.869746 22.119242
-12.255234 11.512736 23.208591
-12.313234 11.765568 35.363018
-12.40522 12.0220375 23.617708
-12.37265 12.674266 35.85185
-12.199899 13.180571 23.740791
-12.408223 13.55928 36.008842
-11.670444 15.069081 17.150415
-11.836755 14.852531 18.283117
-12.050198 15.12583 19.090498
-12.53858 14.1069765 35.88971
-12.165068 15.713892 17.586525
-12.356056 15.545001 18.483677
-12.465748 15.517012 19.538494
-12.392179 15.40135 29.953053
-12.634113 14.73505 34.47718
-12.499793 14.649037 35.294388
-12.019272 16.384218 17.169004
-12.425122 16.546833 28.948734
-12.237178 17.109001 17.77658
-12.424658 17.574026 18.408804
-12.494379 17.54294 28.244045
-11.70817 17.923615 17.902111
-12.361692 17.841198 18.434093
-12.720442 18.385557 27.8946
-12.752688 19.121452 27.125652
-11.87354 21.100702 17.943003
-11.746469 20.915743 18.426022
-12.645176 19.834225 23.867376
-12.480716 20.061884 24.612179
-12.508506 19.9575 25.270641
-12.374924 19.64351 25.950266
-11.7293215 21.86181 17.117884
-11.904663 21.708263 17.662746
-12.01559 21.658947 18.448391
-11.849432 21.655632 19.07278
-11.610826 22.523853 16.895725
-11.860218 22.490015 17.646523
-11.917511 22.36248 18.263018
-11.682639 22.316345 19.022732
-11.552573 23.089476 16.828342
-11.732831 23.006472 17.563145
-11.7280855 22.820627 18.391182
-11.183836 7.307817 22.957718
-11.41812 7.261951 23.423296
-11.16731 7.188338 27.868057
-11.604887 6.777661 28.767141
-11.658901 6.619748 29.132582
-11.428718 6.610459 31.675047
-11.455472 6.8858733 32.306858
-11.273026 7.926653 22.204092
-11.411325 7.64991 22.537987
-11.382518 7.9393387 25.032963
-11.581543 7.63687 32.937645
-11.34498 8.649111 21.847128
-11.512824 8.410142 25.460737
-11.631075 9.360579 21.88735
-11.440245 10.030717 21.972296
-12.157371 10.792754 34.791573
-11.449317 11.473616 22.323317
-11.682996 11.5506525 34.935463
-10.8658 14.0131445 16.435465
-10.799038 13.674077 17.040188
-10.842698 13.894772 18.381392
-11.158667 14.267953 19.29587
-11.900376 13.567736 35.81759
-11.3717165 14.588404 17.131378
-11.453838 14.527552 17.632868
-11.319942 14.429071 21.887178
-11.982442 14.304799 35.645554
-12.051222 14.018264 35.875675
-10.814173 15.170802 15.922879
-11.303419 15.165537 16.582567
-11.442299 15.693304 31.682558
-11.514934 14.986488 33.30694
-11.085246 16.577414 16.62571
-11.550232 15.873438 29.761927
-11.118145 15.747257 30.322544
-10.809235 16.687311 31.225828
-11.248469 17.397099 17.0555
-11.772322 18.498226 27.44737
-11.104754 19.058472 18.378439
-11.127392 19.117924 21.046907
-12.012043 19.54785 26.003344
-12.055385 18.916891 27.267807
-10.84245 21.034863 17.069332
-11.541339 20.522547 18.595787
-11.131614 20.793076 19.340214
-11.237938 19.643787 24.041693
-11.724406 19.83601 25.338663
-12.097247 19.650734 25.858814
-11.275702 21.9187 16.651247
-10.991523 22.431608 16.26744
-11.357155 22.574728 16.565073
-11.292614 22.453947 19.25483
-10.955188 23.37851 16.279884
-11.311602 23.477867 16.717567
-11.417193 23.59308 17.509005
-11.454597 23.280571 18.214903
-11.061652 23.275757 18.762383
-11.065462 23.821604 16.761793
-11.170509 23.863867 17.38763
-11.012659 23.747864 18.121838
-10.653063 7.3138433 22.892197
-10.824925 7.111806 23.611778
-10.437969 7.1696444 24.155094
-10.739031 7.0857325 28.018023
-10.329549 6.91212 28.452003
-10.541303 6.574619 29.747377
-10.417937 6.552543 31.217237
[...]
POINT_DATA 4196
SCALARS features_00 float 1
LOOKUP_TABLE default
0.91508615 0.9222726 0.9096739 0.96139336 0.9639559 0.8646791 0.9158091 0.88247824 0.87364376 0.80686057 0.80370426 0.8241381 0.83764017 0.86669147 0.883782 0.85425 0.84499913 0.7572265 0.8452325 0.90867925 0.7826957 0.8254763 0.7913239 0.7531251 0.7830787 0.6759534 0.7075633 0.83002734 0.82134235 0.76202327 0.7470703 0.7820132 0.79450846 0.62826335 0.8090869 0.8091645 0.54715693 0.7544415 0.5910098 0.4919229 0.6988535 0.60430354 0.65139365 0.41066542 0.5174064 0.65431595 0.6509999 0.63987195 0.76131743 0.801681 0.7906293 0.6716049 0.6909558 0.701318 0.5859524 0.68709844 0.3817486 0.61516166 0.4227573 0.4897807 0.530774 0.35150236 0.48987824 0.55481386 0.587535 0.3470462 0.39195448 0.5545194 0.6266076 0.23185934 0.61005396 0.6023078 0.5080788 0.5320083 0.5335024 0.75998724 0.7740534 0.75263405 0.72987354 0.59775776 0.6941211 0.57981944 0.56884766 0.28367284 0.39789346 0.36711556 0.4185143 0.36242163 0.32945353 0.38672918 0.31635723 0.28281313 0.31678078 0.46297443 0.22656998 0.2463611 0.513039 0.5235867 0.5259116 0.53105646 0.5274694 0.5221603 0.50445503 0.49065948 0.4671454 0.45452598 0.7235763 0.7373185 0.6945025 0.028884146 -0.17567696 0.34984756 0.18265867 0.21241207 0.3121578 0.13405052 0.2717882 0.3443033 0.05246888 0.13711089 0.38370377 0.34986174 0.31700322 0.16382843 0.2780037 0.45157474 0.1565493 0.3525774 0.44884625 0.404788 0.4977715 0.3668842 0.42055377 0.42886007 0.43775916 0.44962877 0.40682477 0.4142015 0.20087378 -0.15504965 0.41435942 0.43172258 0.48010284 0.5527734 0.08626112 0.4598564 0.5500331 0.44372824 0.3613183 0.3995474 0.40878695 0.41027713 0.4013493 0.42210022 0.40965724 0.45075506 0.45765677 0.42884582 0.3906084 0.35950884 0.343855 0.6892496 0.29347992 0.6115993 0.22630721 0.4994772 0.0927027 0.07006805 0.36312884 0.047456224 0.6167033 0.04599189 0.6321353 0.37725312 0.63034195 0.64036715 0.4064272 0.34802982 0.50656086 0.59459907 0.4312544 0.41800296 0.3890651 0.30026457 0.4091968 0.41223 0.3870166 0.35016632 0.35144895 0.45388675 0.46177 0.45561346 0.46867773 0.4744465 0.4790782 0.468431 0.46992248 0.49793276 0.4932577 0.49788612 0.48823655 0.6879658 0.4013468 0.4042188 0.42230475 0.44937932 0.7439854 0.7225287 0.66992664 0.7358314 0.71826303 0.70214283 0.53751826 0.44659483 0.42879313 0.65563476 0.5992336 0.5662335 0.21741584 0.34566218 0.09416479 0.61874044 -0.005959476 0.66191363 0.34956452 0.3379535 0.35075063 0.6724999 0.41103336 0.40002134 0.37212437 -0.24684222 0.533413 0.63434434 0.44841307 0.10980947 0.4016703 0.3612003 0.39144003 0.2449657 0.32238746 0.4579004 0.48652542 0.64223206 0.63347137 0.5263423 0.5229254 0.51192296 0.5036164 0.71100694 0.7107 0.7108923 0.6963837 0.7710738 0.77389926 0.75604284 0.7261065 0.8101566 0.8088482 0.76773673 0.6974855 0.6948482 0.28786886 0.35733354 0.37116218 0.4930942 0.49158347 0.74285746 0.72898877 0.56243294 0.46917683 0.7487482 0.47359282 0.65847147 0.54652655 0.16886479 0.32184547 0.19373849 0.3405143 0.33816424 0.2983922 0.26243904 0.63292015 0.33329782 0.32488927 -0.00255675 0.65851843 0.67032945 0.27699175 0.33664435 -0.04603447 0.21775396 0.35547405 -0.19629177 -0.12935914 0.09834168 0.30248815 0.48009956 0.06463468 0.03893049 0.50622845 0.4970104 0.49772704 0.5632665 0.6053572 0.55619764 0.5332266 0.5096184 0.67416275 0.68739057 0.75672734 0.68735754 0.7695143 0.8270576 0.8373738 0.77831227 0.68715096 0.83418834 0.8405632 0.75851434 0.6581952 0.6392409 0.58108443 0.2840359 0.28533405 0.352987 0.45028278 0.46975574 0.46722308 0.6770565 0.669014 0.21442184 0.45659357 0.7330996 0.42400643 0.660919 0.4931065 0.1042279 0.11411598 0.35280597 0.55036193 0.4751352 0.4451738 0.40208477 0.37014166 0.37101796 0.13493124 0.68995094 0.60596985 0.48802948 0.4224894 0.73317564 0.65172327 0.4379011 0.2929008 0.032063752 0.20076641 0.32809347 0.72552127 0.6512944 0.49897218 0.35518342 0.2992695 0.22494432 0.07817352 0.32319278 0.2914402 0.2365757 0.25682023 0.32113189 0.4866436 0.42413762 0.15057808 0.41006488 0.50124496 0.26383746 0.65208185 0.43863258 0.7249994 0.6449195 0.59657407 0.7299822 0.78040075 0.7735952 0.6804278 0.5182023 0.60201436 0.27367043 0.2645867 0.33380944 0.34039274 0.41615218 0.46129677 0.4638232 0.6120968 0.59079665 0.47036564 0.45268434 0.63138145 0.37923872 0.2676468 0.08925092 0.10929966 0.57912445 0.5483415 0.5028852 0.41202092 0.28425214 0.3437397 0.3059766 0.029500231 0.07547289 0.69031537 0.6406611 0.5030176 0.41670483 0.3800739 -0.12840419 0.17610793 0.76595217 0.69948953 0.79979444 0.80512935 0.76075387 0.620172 0.12330689 0.56561244 0.71233225 0.3914001 0.27412316 0.24261424 0.23243526 0.20425522 -0.017687142 0.54224277 0.64056045 0.68024874 0.3078933 0.56491655 0.656523 0.70153034 0.18608588 0.22553709 0.2939807 0.31673983 0.28196126 0.3283986 0.40860617 0.6592821 0.6668978 0.6603129 0.583014 0.44284028 0.25768018 0.30709532 0.33058912 0.40704423 0.43717858 0.40381575 0.15165836 0.18761522 0.16797946 0.39288995 0.43434572 0.46755648 0.41639912 0.46567354 0.5818132 0.5404538 0.50343895 0.19878076 -0.03646648 0.15673485 0.14932589 0.06646748 0.12600389 0.13046749 0.6785954 0.6185297 0.13622524 0.7727448 -0.49891084 0.14914757 0.8077843 0.817945 -0.29715353 0.20112717 0.801968 0.4844546 0.6642916 0.57252395 0.44809362 0.715117 0.3588467 0.21350616 -0.18297757 0.49013725 0.743047 0.79285175 0.6053666 0.6927972 0.7554903 0.8070244 0.44131422 0.29006276 0.72998047 0.4256404 0.30500382 0.40616757 0.31489438 0.3226884 0.3094834 0.29140618 0.2891708 0.3372744 0.3415122 0.36815333 0.511953 0.45326656 0.39481264 0.31410724 0.3322739 0.240484 0.04494308 0.10943105 0.27787498 0.35202926 0.3835177 0.39914393 0.3165183 0.1405833 0.37691087 0.33348438 0.290595 0.58719677 0.5546328 0.5087472 0.42272937 0.2856922 0.056806613 -0.08398031 -0.14789973 -0.15180622 0.0968576 0.65256023 0.12244425 0.7610535 0.70076525 0.15327147 0.78766215 0.7984229 0.76375085 0.26295972 0.554608 0.70562595 0.6389043 0.5250387 0.18940493 0.7197449 0.12525682 0.13554516 0.4733679 0.8136424 0.64968467 0.8294717 0.8464632 0.4958161 0.47081986 0.3576188 0.7044648 0.7536067 0.8016584 0.4970906 0.3564294 0.40336365 0.5063355 0.4645426 0.35467762 0.47856742 0.44346333 0.42297733 0.3295672 0.34998828 0.50893617 0.39041215 0.36676618 0.25531393 0.3189457 0.33524263 0.37703073 0.12318246 0.09769185 0.20140038 0.34356853 0.27099887 0.31144628 0.19069216 0.19305831 0.16154927 0.009043945 -0.0024172962 -0.0010891221 0.5024673 0.3235226 0.18940917 -0.05615589 -0.09603259 -0.3042407 0.49437946 0.47585106 0.11631797 0.7504787 0.049130514 -0.072216995 0.28479707 0.67204857 0.51621836 0.57206345 0.14636323 0.14134103 0.13655218 0.7559178 0.10203408 0.8363373 0.3467037 0.70341957 0.74853337 0.8516387 0.85766387 0.4560107 0.38301137 0.7827787 0.8229165 0.51609385 0.4079053 0.40481105 0.5421928 0.38548818 0.57180524 0.5857812 0.34307694 0.61590064 0.6130266 0.5916571 0.551868 0.5945374 0.60182905 0.6081915 0.35785377 0.35886848 0.33565208 0.28007808 0.2753988 0.44268456 0.03656952 0.18083757 0.084392324 0.1904387 0.0595757 0.2572575 0.014994141 -0.024606358 0.043728188 0.21367106 -0.03623947 -0.093330726 0.12532772 0.23224014 -0.2788229 0.1222024 0.011825502 0.20056903 0.52041656 0.07448785 0.04104726 0.41062483 0.6754403 -0.0555667 0.130331 0.782432 0.17255928 0.5604703 0.6486646 0.84036493 0.84468865 0.33991924 0.63800126 0.70367694 0.7549485 0.82835364 0.35529378 0.37121302 0.55256647 0.3259036 0.35268247 0.5851767 0.28781992 0.36567578 0.6089161 0.62260276 0.2624148 0.30177575 0.64867175 0.67816556 0.6826826 0.66283566 0.617677 0.65859973 0.65874934 0.53187853 0.5480099 0.3948136 0.39932021 0.32771927 0.32769257 0.28613627 0.44368383 0.47768235 0.41158333 0.20540841 0.3543808 0.3141765 0.102512814 0.022849753 0.14516808 -0.10859692 0.22916736 0.16357398 0.060583282 0.23484744 0.16255218 0.30761695 0.35309494 0.2850546 0.46134815 0.5866043 0.6537698 0.6246104 0.428439 0.09459297 -0.0066965558 0.12882335 0.13200577 0.2527572 0.7158326 0.74950576 0.39911807 0.32440758 -0.044159625 0.75461787 0.8045592 0.13864683 0.013657875 -0.02958152 0.7137914 0.7530174 0.8112855 0.83257115 0.28222597 0.0067319553 0.2648598 0.7396522 0.77054626 0.8109559 0.55967987 0.227835 0.31417316 0.28674856 0.61105716 0.28379425 0.18173075 0.21555994 0.6251138 0.6392747 0.54664636 0.4997616 0.6651275 0.69597805 0.6939752 0.6533487 0.6089679 0.5150857 0.5115422 0.52605575 0.50366867 0.3008198 0.25428325 0.27742198 0.29456586 0.26470378 0.20409396 0.20822242 0.08521984 0.037986178 -0.06698358 -0.1845623 0.2709439 -0.0047316686 -0.18399863 0.1727491 0.13993353 0.067450106 0.0547119 0.021524895 0.17565106 0.23271549 0.21595912 0.13635543 0.11173026 0.28421256 0.32291263 0.289256 0.46219724 0.3459208 -0.04853456 0.2940452 0.49117202 0.38282382 0.36974502 0.38063404 0.4623794 0.4915778 0.7036158 0.43716955 -0.069186 0.019597277 0.78855926 0.7547294 0.76244545 0.32203707 0.014480539 -0.23717873 0.80282515 0.8339664 0.82278085 0.8206982 -0.15014692 -0.094230644 0.8050566 0.8228097 0.83358055 -0.08024857 0.12434223 0.6280138 0.62743217 0.2629354 0.30615354 0.64057446 0.6645917 0.61751807 0.55075645 0.65688264 0.3610881 0.42906874 0.44451755 0.3764302 0.19093373 0.3807168 0.3952968 0.31202218 0.19769569 0.12625736 0.21817516 0.31917542 0.15916434 -0.033651657 0.20604177 0.21584493 0.21654615 0.0623696 0.10323032 0.20699127 0.19420403 0.063019186 0.050514806 0.06705681 0.06718466 0.05959682 0.19944233 0.19450536 0.18466029 0.28657898 0.23147091 0.45545197 0.30980864 0.4452018 0.49164942 0.29954043 0.032548748 0.3829991 0.41467544 0.42862356 0.46015573 0.34448332 0.030965388 0.33560708 -0.034099415 -0.104130745 -0.35695016 0.15358283 0.15816669 0.112119354 0.355345 0.40675536 0.37409854 0.28265122 0.36162496 0.3587387 0.32354248 0.08846161 0.25031883 0.028875725 0.03021268 0.099908374 0.0817414 0.12845838 0.066631526 0.055528738 0.14979987 0.08303 0.06259272 0.1560745 0.056359336 0.09339185 0.16810246 0.41424945 0.2608449 -0.02540315 0.38151106 0.4215482 0.4130482 0.4605695 0.23943199 0.6393064 0.5564746 0.6375459 0.5498791 0.035436623 0.45076537 0.30940926 -0.11499784 0.45507368 0.42648333 0.2566105 0.24927276 0.36054704 0.41674137 0.22417302 0.19780597 0.17973419 0.203453 0.804695 0.66339684 0.7690598 0.75643134 0.6895558 0.49772364 0.59968066 0.7153621 0.6531751 0.61340535 0.55685544 0.46973544 0.54146594 0.52357745 0.43858665 0.3410436 0.15578876 0.15563034 0.15679699 0.0120633505 0.141341 -0.01325141 0.06378608 -0.013690008 0.008952716 0.019280814 0.09810548 0.103639446 0.29331338 0.09589759 0.004564222 0.4276045 0.3349951 0.07414908 0.08651602 0.2806372 0.55636394 0.14981827 0.18563737 0.66725445 0.596959 0.69012904 0.67837155 0.3601541 0.6748916 0.65668577 0.4804498 0.66832304 0.6473078 0.57726204 0.32016745 0.3449979 0.45060483 0.46838623 0.4366203 0.45819786 0.41421926 0.39356497 0.36919668 0.1894655 0.34647602 0.4227208 0.740735 0.800529 0.77379227 0.69460833 0.5922242 0.6618664 0.65764964 0.523919 0.50365 0.54065317 0.32887638 -0.045052662 0.20642018 -0.060745284 0.027074892 0.107551485 0.23308712 0.08034577 0.43064076 0.39151248 0.07734807 0.37315887 0.100556135 0.4468492 0.3448603 0.5990427 0.4844782 0.0016797036 0.6562333 0.03152468 0.2599945 0.3447394 0.703735 0.23688605 0.69893974 0.69066817 0.26979655 0.29410353 0.6785659 0.16558303 0.4535014 0.6608025 0.64181185 0.57226366 0.17360824 0.19382468 0.3950426 0.44961715 0.5108998 0.110917605 0.123279855 0.2929588 0.5708743 0.5781152 0.537701 0.6654398 0.7572586 0.7411536 0.6209539 0.54769 0.6057086 0.57839656 0.33460948 0.47186285 0.381861 0.23503721 -0.24610859 -0.07536664 0.053907126 0.18797871 0.22362818 -0.19876824 -0.10924047 0.031265885 0.043543573 0.27755636 0.45554745 0.48725963 0.4956286 0.09944958 0.50946593 0.13286653 0.57249916 0.39779612 0.6793066 0.58263206 0.05218105 0.10414914 0.18896304 0.6762377 0.670743 -0.12062805 0.2539224 0.3714658 0.70131755 0.6752724 0.6246213 0.022791654 0.62979627 0.57720333 0.05087091 0.56868863 0.44505304 0.11919092 0.11351979 0.5453742 0.23004135 0.12311607 0.5682633 0.5939299 0.6774813 0.56465954 0.606308 0.6746175 0.53951705 0.5049463 0.4853649 0.4272672 0.30997175 -0.21554486 0.0050229747 0.02781121 0.22677822 -0.12722324 -0.06556734 -0.01669493 0.10924339 0.15923244 0.15297095 0.26023054 0.13818432 0.47102606 0.50726736 0.5254806 0.11602243 0.46625847 0.5553509 0.11623453 0.6587802 0.22304797 0.21007681 0.7341349 0.49451002 0.39738232 0.14045861 0.75630885 0.5695325 0.04949658 0.06365924 0.08988038 0.7613863 0.76307404 0.6410981 0.029001921 0.60040784 0.67586654 0.7261925 0.64763737 0.60183775 0.10693331 0.5459824 0.38330466 0.07688857 0.49046546 0.44996902 0.33492982 0.10719336 0.10267782 0.08514196 0.117879786 0.117343456 0.5336406 0.3498485 0.5977373 0.63480246 0.6449899 0.5547538 0.33899277 0.43362528 0.79374504 0.82604134 0.3093446 0.4122544 0.3091363 0.18224663 0.06826155 0.80229306 0.8233701 0.85537034 0.8540985 -0.068357736 -0.055445053 -0.028897002 0.84785837 0.86587906 0.86099225 0.22043857 0.32497594 0.33937716 0.2062059 0.34179005 0.4251458 0.13245174 0.39039907 0.48387462 0.50890964 0.55778086 0.111185305 0.09384537 0.55400485 0.57866895 0.6321013 0.11837201 0.4993133 0.735685 0.74235487 0.20070642 0.80106664 0.4824143 0.39621827 0.07661222 0.101180464 0.13361098 0.8273233 0.53713816 0.45346528 -0.132768 -0.16288054 -0.026832435 0.7029627 0.7756095 0.7978586 0.81990486 0.5848491 0.56280804 0.7468747 0.7688879 0.4001919 -0.04964143 0.10213363 0.48481044 0.3944931 0.14278372 0.11172096 0.1109148 -0.06223493 0.083309166 0.10215736 0.1022655 0.107519746 0.599065 0.5624335 0.30392677 0.32730633 0.21621376 0.6243561 0.58054566 0.499084 0.55610514 0.54525226 0.54208297 0.70388585 0.7554105 0.7575369 0.5311103 0.29236728 0.39280668 0.5356494 0.68461025 0.74879086 0.79745513 0.80776215 0.7329631 0.45543808 0.30040717 0.24448025 0.08794428 0.74285287 0.76729167 0.8172051 0.72325194 0.14658138 0.7973894 0.8396565 0.8160986 0.17409746 0.21163036 0.45930228 0.47060043 0.54867303 0.80416816 0.816947 0.82123935 0.82405525 0.19218343 0.21035388 0.54054624 0.79666483 0.79062915 0.7735126 0.1686368 0.6197286 0.03862527 0.48944953 0.71458507 0.760798 0.28916305 0.1865586 0.19210629 0.7250261 0.7574626 0.79891086 0.7961435 -0.032938547 0.08258058 0.07749475 0.7552453 0.8034928 0.8206048 0.82571834 0.49991962 0.41530073 0.7560399 0.8089588 0.8246121 0.4405648 0.038013823 -0.00619445 0.2922786 0.12335935 -0.12565213 0.15659079 -0.092132725 0.12514825 0.18329602 0.2991386 0.41695866 0.5153163 0.46048498 0.40777594 0.31434476 0.57020265 0.55978894 0.49757272 0.32797146 0.3099269 0.58459413 0.57252824 0.42566556 0.23936391 0.20860402 0.43532604 0.55006963 0.64656776 0.72986484 0.60019696 0.6308079 0.6409307 0.5404488 0.17047936 -0.16846418 -0.01541166 0.18363686 0.25933468 0.34295198 0.44178924 0.58813465 0.68914604 0.5835676 0.6378619 0.71514845 0.44989657 0.3183334 -0.036756255 0.57640564 0.63407004 0.20646577 0.5341528 0.69812554 0.68408 0.6763344 0.16366151 0.62873507 0.64229095 0.68598473 0.77592313 0.6332168 0.17719428 0.69334126 0.76597166 0.76857436 0.7644532 0.7246101 0.16081445 0.732981 0.72328687 0.7439183 0.73396003 0.62789476 -0.073227465 0.42297342 0.56886786 -0.40990222 -0.07420456 0.20369634 0.23176816 0.7921368 0.7999041 0.27400154 0.14554736 0.8036675 0.81440365 0.24433893 0.16743103 0.14042091 0.35077158 0.26743084 0.38876867 0.38064283 0.42432857 0.44218737 0.44225943 0.43793878 0.46326563 0.43654266 0.43942875 0.38174263 0.3644096 0.47265208 0.428137 0.37685633 0.44878632 0.5651394 0.5323149 0.47006553 0.38899273 0.33850527 0.35762897 0.39318147 0.49350715 0.4052081 0.5909925 0.43715587 0.5566598 0.62558496 0.70060456 0.3969759 0.40617988 0.40301058 0.63713384 0.597072 -0.03525486 0.4209299 0.517845 0.72436196 0.77854824 0.39148748 0.34179005 0.43042436 0.789761 0.78864515 0.46536446 0.5250411 0.7144221 0.48676175 0.5399598 0.3078147 0.6250663 0.548568 0.15443465 0.59435356 0.6262518 0.6992395 0.6938943 0.5106564 0.72838485 0.74069417 0.70777684 0.7201488 0.6541661 0.5468299 0.10251564 0.72706246 0.7071562 0.6891674 0.66473484 -0.06711258 0.6292455 0.6706845 -0.25294903 -0.41984558 -0.3162378 0.4237116 0.54023606 0.5785589 -0.29841366 -0.028519135 -0.024647553 0.19171003 0.34638578 0.4159485 0.501905 0.44721568 0.49698055 0.52975184 0.51445985 0.5002502 0.50395346 0.48218077 0.48521394 0.5184504 0.4757712 0.45328307 0.40086168 0.39632162 0.49053222 0.5286118 0.5396216 0.5630983 0.50498 0.3245045 0.5317067 0.5187613 0.42017245 0.42577112 0.4156117 0.40148202 0.63109213 0.40831214 0.4364798 0.5267936 0.65099466 0.7145175 0.40468836 0.3951267 0.3399515 0.6585635 0.5133345 0.7350273 0.7546622 0.340909 0.2593019 0.24419993 0.7569598 0.74184096 0.25041062 0.299518 0.18651755 0.4824956 0.7187763 0.37579224 0.41885346 0.47973794 0.40915105 0.28831586 0.5892589 0.4344691 0.021972714 0.69322133 0.7064097 0.63261354 0.6414329 0.41851458 -0.0030007176 0.02876326 0.04883488 0.65724826 0.6954243 0.64034426 0.5731215 -0.09561409 0.00094332173 0.54502684 0.6053014 0.63462114 -0.2448138 -0.28982964 -0.11710922 -0.04252425 -0.13730876 0.05928828 0.07605292 0.22051069 0.38066435 0.49920872 0.49111027 0.4304299 0.45067823 0.46444142 0.54269224 0.5401455 0.48696703 0.4857152 0.4951818 0.5402756 0.5481552 0.544911 0.5010977 0.50623053 0.48413068 0.5077729 0.37173977 0.3958441 0.47478646 0.5243323 0.53366315 0.3991354 0.3655899 0.34897724 0.32217237 0.4441188 0.305574 0.45751658 0.40593034 0.40599227 0.40673947 0.34729376 0.37096137 0.27074423 0.62853384 0.42845583 0.60494673 0.66831857 0.7194122 0.14550263 0.1852869 0.47254783 0.55243444 0.6446119 0.08839272 0.39847454 0.49749866 0.28930235 0.20664346 0.3679617 0.31947803 0.41218972 0.30413803 0.07758932 0.20124102 0.3701021 0.29130256 0.22561653 -0.110388495 0.14592934 0.49416715 0.33189872 0.28668284 -0.07023732 0.053475738 0.1254633 0.4982336 0.49205136 0.38653854 -0.1323997 0.41796312 0.34243166 0.26647162 0.540853 0.42633557 0.15046942 0.06941348 0.48238882 0.4116857 0.20003757 0.20620494 0.16180106 0.122416034 0.12874734 0.23543277 0.3623696 0.31602964 0.32220817 0.40179008 0.4341278 0.43918496 0.4761881 0.4457984 0.45076662 0.44876677 0.48594964 0.51871455 0.47472203 0.4861581 0.5022369 0.45169586 0.47544497 0.27267724 0.27737588 0.29625094 0.33668542 0.18484962 0.35643387 0.4092812 0.48892793 0.49655896 0.43387425 0.38820183 0.38130325 0.3373909 0.29491824 0.29587466 0.3187782 0.3167219 0.38068497 0.35740048 0.2526118 0.42190486 0.3041485 0.39904535 0.2539098 0.35320884 0.097806774 0.61257946 0.19198477 0.39150092 0.2975922 0.5215641 0.51276785 -0.32559496 0.25112826 0.374319 0.4994157 0.2624189 -0.082844466 0.09125257 0.26451552 0.31407064 -0.13611005 -0.036938824 -0.011306854 0.21025017 0.20532343 0.3547563 0.33252144 0.21583946 -0.011811907 0.34174708 0.34899557 0.24014622 0.25356707 -0.23985171 0.04366137 0.3033861 0.30843502 0.21097027 0.5099102 0.33804148 -0.006883297 0.52612317 0.5270148 0.5204791 0.5011264 0.105769224 0.4907989 0.411184 0.28803414 0.24487028 0.23700051 0.23756045 0.26105326 0.290941 -0.042189464 0.020246051 0.27958387 0.36508673 0.24198443 0.25963417 0.30761486 0.3558319 0.33548534 0.17082779 0.34653783 0.36650473 0.41423124 0.31800532 0.27385345 0.26976496 0.15865709 0.29682875 0.23995712 -0.20741498 0.20702705 0.11228691 -0.11222392 0.037011184 0.09643008 0.13629532 0.012427032 0.10936154 0.13897339 0.04738967 0.31386226 -0.060828887 0.14602947 0.16700827 -0.017006041 0.22248866 0.27325028 0.28455564 0.1931811 0.21334863 0.04411164 0.10291776 0.24441275 0.2511408 0.24851513 0.07243143 0.3795479 0.24915244 0.47394684 0.21369189 0.48059648 0.5023482 0.41719693 0.48445767 0.4901939 0.416484 0.3538611 0.25317279 0.2452409 0.35164136 0.37131768 0.26057625 0.23443785 0.2296049 0.32209706 0.3312269 0.36149544 0.34770864 0.24654484 0.06996663 0.18597834 0.28777787 0.096082345 0.118750334 0.23155391 0.24249008 0.5937075 0.056607164 -0.0180642 0.24574734 0.59748065 0.49574