# vtk DataFile Version 2.0
Really cool data
ASCII
DATASET POLYDATA
POINTS 4820 float
71.262764 -38.844364 -103.26352
71.149734 -39.00029 -102.37308
71.22625 -39.068157 -101.40148
71.35898 -39.077957 -100.86465
71.081055 -38.18883 -103.794685
70.97169 -38.570156 -103.28479
70.73458 -38.285778 -102.59462
70.68907 -38.15494 -102.003876
71.289055 -38.40546 -100.4525
71.40298 -38.442673 -100.22873
71.01908 -37.629276 -103.87684
70.76608 -37.34705 -103.50936
70.59942 -37.417652 -102.48319
70.70141 -37.429363 -101.817406
71.15031 -37.65489 -100.66047
71.40656 -37.95531 -100.23556
71.23515 -36.46863 -103.87458
70.894745 -36.61379 -103.366295
70.83038 -36.479897 -102.6083
70.97652 -36.624626 -101.66408
71.19954 -36.636597 -100.88568
71.20999 -36.07925 -103.39219
71.11145 -36.067158 -102.68214
71.74386 -39.669052 -101.97076
71.77674 -39.75181 -101.42521
71.9477 -39.681335 -100.552925
71.600746 -38.820873 -103.74463
71.55164 -39.00422 -103.26597
71.60391 -39.38807 -102.304924
71.499725 -39.506077 -101.31872
71.544334 -39.425743 -100.784325
71.8849 -39.107014 -99.992615
71.64841 -38.432835 -103.98682
71.8479 -38.419518 -99.83386
71.62947 -37.425552 -104.277794
71.81334 -37.293034 -99.862915
72.2416 -37.403587 -99.358315
71.64723 -36.488857 -104.13256
72.09156 -36.630573 -99.533905
72.25785 -36.354813 -99.38099
71.71262 -35.93334 -103.76378
71.38329 -35.854874 -103.37315
71.7747 -35.857677 -100.48752
72.143745 -35.853687 -99.76089
72.06403 -35.285946 -103.069916
72.05818 -35.13939 -101.764015
72.34121 -40.040962 -101.449524
72.46192 -39.932323 -100.628105
72.37615 -39.679523 -100.16069
72.6044 -38.685658 -104.0031
72.44656 -39.077152 -103.249016
72.56505 -39.109863 -99.60196
72.75815 -38.238674 -99.25329
72.57409 -36.426224 -99.20444
72.36846 -36.016815 -104.128235
72.27156 -35.48775 -103.57757
72.65592 -35.68243 -99.47592
72.64174 -36.05497 -99.24039
72.551094 -35.117493 -103.023155
72.78711 -34.614532 -102.44226
72.71404 -34.673912 -101.384186
72.78394 -34.911728 -100.5639
72.53849 -35.31197 -99.80433
73.11896 -34.348427 -102.18161
73.03528 -39.930157 -101.77232
73.16541 -39.95931 -100.77345
73.687965 -38.76789 -103.90778
73.52915 -39.147015 -99.68717
74.069984 -38.07515 -105.10999
73.1977 -38.741886 -99.33206
73.85074 -37.62815 -105.1114
73.711945 -36.502075 -104.82427
73.06267 -35.453056 -99.462425
73.19121 -35.930656 -99.17885
73.49122 -35.265484 -103.67571
73.581764 -34.62679 -103.269424
73.24222 -34.810528 -100.3446
73.3159 -35.126755 -99.78088
73.55427 -34.215195 -102.251335
73.568115 -34.268993 -101.500275
73.4491 -34.4117 -101.11467
73.90725 -39.72732 -100.89679
74.43454 -39.061657 -103.76376
74.41045 -39.256756 -101.41776
75.01242 -37.876637 -105.523
74.74343 -38.19697 -105.21617
74.172676 -38.721786 -99.87826
74.628044 -37.601368 -105.467316
74.418724 -37.265118 -99.462875
74.077614 -37.774536 -99.42005
74.37365 -37.016987 -105.40174
74.97043 -35.343727 -104.73571
74.7571 -35.38352 -99.70245
74.58551 -35.11685 -104.24354
75.00589 -34.520267 -103.72486
74.64944 -34.641605 -100.53344
74.47049 -34.33112 -103.195984
74.49977 -34.056633 -102.39812
74.36621 -34.107483 -101.602295
75.20951 -39.490334 -103.29079
75.79449 -38.221054 -105.18314
75.461426 -37.453945 -105.57236
75.13099 -37.743626 -105.49649
75.54942 -36.825634 -105.573
75.90932 -35.851585 -105.48303
75.03705 -35.933613 -99.72868
75.574135 -35.147038 -104.82414
75.52859 -34.551414 -103.984116
75.58607 -34.69923 -100.53007
75.20342 -34.836987 -100.20566
75.37795 -34.34076 -103.31524
75.10593 -34.161663 -102.24931
74.987206 -34.11761 -101.56488
77.32051 -41.671734 -103.08113
77.320404 -41.690575 -102.50767
77.02676 -41.34677 -102.77136
77.28737 -40.970753 -101.128876
76.73093 -40.556774 -102.74737
76.62931 -40.42753 -101.98357
77.19299 -40.60753 -100.95696
76.22246 -38.31452 -100.51638
77.27084 -38.564003 -100.01741
76.67036 -37.053093 -105.603294
76.64297 -37.4727 -105.475624
76.24302 -36.296673 -105.64621
76.598206 -36.56422 -99.42863
77.39339 -36.772736 -96.06739
77.252785 -36.12833 -96.02257
77.363304 -36.17098 -94.87546
76.827126 -35.984245 -105.56704
76.7018 -35.614788 -105.405556
76.915215 -35.378967 -98.2685
77.31729 -35.858692 -94.96559
76.53875 -35.19254 -105.03879
76.41725 -34.7565 -104.28992
76.87537 -34.727406 -100.99913
77.05626 -35.136745 -98.287125
76.835754 -34.979336 -97.60893
77.39247 -35.18594 -95.65571
76.03114 -34.450832 -103.6049
76.147255 -34.320137 -102.68195
76.21944 -34.356617 -101.773094
77.20656 -34.29841 -97.12268
77.73621 -41.838013 -103.28995
77.69671 -41.93225 -102.88057
78.0237 -41.86959 -101.52332
77.34244 -41.269596 -103.54684
77.38324 -41.354504 -101.44838
77.52537 -41.241726 -101.14258
78.30903 -40.264595 -104.93714
78.033615 -39.6012 -104.75665
78.260155 -38.024605 -98.8767
77.906906 -37.800797 -95.60161
78.18095 -37.821777 -94.92987
77.65654 -37.42664 -98.21296
77.44284 -37.420444 -97.46698
77.78874 -37.470055 -95.25106
77.706924 -36.992264 -94.703476
78.17714 -37.133423 -94.21902
77.10507 -36.574856 -105.65403
77.39477 -36.103935 -105.48168
77.61323 -36.49685 -94.57449
77.95443 -36.28576 -94.12583
77.029564 -35.91789 -105.63811
77.317406 -35.81316 -105.40108
77.67015 -35.470005 -94.690956
78.08736 -35.845375 -94.106705
77.52073 -35.330082 -104.917336
77.509766 -35.172142 -104.67118
77.60861 -34.707424 -102.782074
77.46379 -34.547756 -96.0853
77.980995 -34.925762 -94.88438
77.713875 -34.122437 -98.15765
77.928925 -33.932316 -97.62509
77.623886 -34.142406 -96.59485
78.36471 -41.97817 -103.36743
78.5585 -42.141 -102.422
78.5228 -41.979473 -101.56293
78.62401 -41.86646 -101.25869
78.73323 -41.058727 -104.93924
78.3853 -41.586815 -103.99159
78.528206 -41.14715 -100.663
78.94321 -40.546974 -105.392006
78.92146 -39.962612 -105.50616
78.35957 -38.02143 -98.13617
79.12815 -38.228176 -97.395256
78.645004 -38.269306 -95.678825
78.71778 -38.03896 -94.80956
78.712456 -37.275135 -94.09169
77.91242 -36.83669 -105.14125
78.60939 -36.465134 -93.83138
78.3821 -35.841484 -104.574394
78.52905 -35.720562 -94.02855
78.135086 -34.987164 -103.852264
78.68364 -34.9056 -94.64525
78.89608 -35.280445 -94.164444
78.1696 -33.908417 -97.99465
78.503456 -33.779224 -97.58399
78.29802 -33.88682 -96.399704
78.777115 -34.04895 -95.87681
79.886 -41.57408 -104.630516
79.620384 -41.850777 -103.55481
79.23771 -42.101524 -102.36844
79.41474 -41.925274 -101.749855
79.572044 -41.171677 -105.176636
79.868256 -41.53709 -104.61963
79.29972 -41.18044 -100.83609
79.68047 -40.42942 -105.59931
79.755516 -40.653217 -105.5074
79.31445 -40.754272 -100.558464
79.114624 -40.42172 -100.39624
79.41595 -39.703045 -105.64044
79.36515 -39.173756 -105.465256
79.98261 -38.70881 -98.591194
80.01017 -38.62037 -97.06313
79.70389 -38.533623 -96.16479
79.80422 -38.9931 -105.56462
79.813354 -38.6794 -105.307655
79.10753 -38.296535 -96.25499
79.19867 -38.370876 -95.42422
79.55021 -38.002266 -94.72427
79.60202 -37.712124 -94.28924
79.455956 -37.753456 -104.84907
79.65026 -37.090176 -93.883766
79.3673 -36.88135 -104.34924
79.55627 -36.561752 -93.73416
79.53831 -35.86899 -93.778755
79.55583 -35.195827 -102.92611
79.52949 -34.64784 -94.846725
79.871544 -34.28749 -100.802086
79.39405 -33.850815 -98.26297
79.272606 -33.820053 -97.48799
79.736435 -33.76627 -96.45393
79.509544 -34.031513 -95.6601
79.970146 -41.67217 -104.2327
80.4022 -41.66001 -103.492905
79.857 -41.919846 -102.4262
79.83616 -41.68096 -101.590385
80.47436 -41.018658 -105.04002
80.55213 -41.33272 -104.583725
80.77767 -41.541145 -103.45951
80.12662 -41.38509 -101.578606
79.890976 -41.24342 -101.12536
80.08471 -40.19477 -105.67462
80.62499 -40.379353 -105.34289
80.20445 -40.359703 -100.812675
80.72049 -39.267853 -105.44826
80.63628 -38.56459 -96.73697
80.417404 -38.781918 -105.40472
80.35129 -38.28936 -95.54572
80.250824 -37.824867 -94.73309
79.96409 -37.652695 -94.32459
80.11748 -38.015682 -104.72384
80.28779 -37.58495 -94.55512
80.305565 -37.19198 -94.17963
80.28052 -36.426006 -103.45986
80.19253 -36.420883 -93.894104
80.57646 -35.420662 -94.40989
80.236824 -35.801315 -93.93903
80.35922 -34.54603 -101.55529
80.472664 -34.42511 -95.384796
80.43368 -34.98586 -94.8023
80.6159 -34.379074 -101.22841
80.41034 -34.228016 -100.27303
79.99686 -33.81254 -97.93108
80.54407 -33.955948 -96.40154
80.27777 -34.121296 -95.77316
81.21505 -30.96632 -106.096985
81.24929 -31.306408 -105.118004
81.24283 -30.972929 -104.447365
81.37371 -29.86929 -109.834885
81.259415 -29.837324 -109.51428
81.26853 -30.098812 -108.50572
81.0487 -30.166012 -106.220055
81.124405 -30.53073 -104.49264
81.24369 -30.296366 -104.17986
81.20835 -29.309822 -110.02805
81.02643 -29.254864 -109.5169
81.15633 -29.728327 -108.13317
81.22386 -29.643047 -106.63508
81.12854 -29.741528 -105.380646
81.25535 -29.486013 -104.63508
81.29999 -29.859718 -104.08039
81.185425 -28.601059 -110.09914
80.9946 -28.625265 -109.505844
81.14158 -28.525103 -108.50869
81.305756 -29.10645 -106.32089
81.311775 -29.224745 -105.0355
81.35653 -29.266283 -104.69645
81.28127 -28.104319 -110.10881
81.10612 -28.061157 -109.39432
81.302895 -28.028072 -108.4223
81.1102 -40.78152 -104.85298
81.06859 -41.156605 -104.28853
81.100975 -41.27972 -103.80441
80.80448 -41.217663 -102.64347
80.92504 -40.27992 -105.20591
81.5039 -39.96043 -104.580826
81.30292 -40.663147 -102.60906
80.85589 -40.17272 -101.15508
81.0593 -39.3207 -105.35993
81.92647 -38.617424 -98.51969
80.97634 -39.017567 -105.33089
81.11029 -38.402817 -96.36683
81.28026 -37.94409 -95.63525
81.01684 -37.75047 -95.12433
81.15647 -37.67798 -95.357735
81.25215 -37.31603 -95.02201
81.36934 -36.47465 -94.780075
80.737686 -36.662624 -94.21697
82.013115 -35.75029 -104.178085
81.7145 -35.787167 -103.72581
81.067184 -35.604794 -94.78675
81.979164 -35.239418 -103.495224
81.56657 -35.01582 -95.46369
81.00684 -35.11873 -95.05832
81.11852 -34.06442 -99.0228
81.9426 -33.98492 -98.277245
81.27751 -34.059093 -97.52374
80.8711 -34.292873 -95.91515
81.843636 -31.700422 -106.56428
82.07815 -31.837275 -104.11361
81.92623 -30.768934 -108.92425
81.94108 -31.21988 -107.71744
[...]
POINT_DATA 4820
SCALARS features_00 float 1
LOOKUP_TABLE default
0.64090145 0.63071066 0.6271992 0.63831043 0.71576655 0.6740408 0.6965249 0.67787373 0.624666 0.6313516 0.7662841 0.7732018 0.77036583 0.70347846 0.5989622 0.6058576 0.6257474 0.6836214 0.6938412 0.6890237 0.6007719 0.58995414 0.607744 0.6091179 0.63652337 0.6693032 0.61760366 0.6078205 0.60996664 0.63763493 0.65029764 0.6707973 0.63845754 0.64613533 0.7023676 0.5805174 0.5968278 0.5861317 0.5485008 0.53640544 0.5315256 0.5503886 0.563136 0.5175685 0.47172904 0.5310152 0.64971054 0.7000985 0.7109374 0.5146384 0.5062155 0.73119783 0.7010912 0.5266494 0.47146508 0.467309 0.5291345 0.5226351 0.45330894 0.4710755 0.516069 0.5374552 0.52327156 0.48224413 0.6625544 0.74516606 0.4506232 0.76867884 0.45015302 0.75441915 0.46528038 0.4903389 0.52666605 0.5113232 0.41564614 0.42847157 0.53392416 0.5326347 0.47452104 0.49809757 0.50851583 0.7386639 0.4090909 0.6113353 0.38771 0.38149214 0.673151 0.4061465 0.5921451 0.66046715 0.40641597 0.48484707 0.5229672 0.4281523 0.41864693 0.49679443 0.42357188 0.44586176 0.47656065 0.21551871 0.35026807 0.3967299 0.3924747 0.41548514 0.49243695 0.48496932 0.5038941 0.43657362 0.43988094 0.48233098 0.41075236 0.42364258 0.45106795 0.626287 0.64741933 0.60318345 0.6278739 0.5195087 0.54226863 0.558784 -0.090641156 -0.18185669 0.40209252 0.37930018 0.454598 -0.0107957125 0.6470364 0.6705086 0.7193216 0.46292812 0.4813667 0.4987439 0.7136674 0.49624765 0.4875861 0.32791704 0.52006364 0.53514403 0.69251597 0.42517233 0.38808444 0.38544464 0.55792844 0.6481914 0.66347754 0.70958185 0.560572 0.6654859 0.66486955 0.6307677 0.5249103 0.078550875 0.65504134 0.745523 0.14997129 0.326087 0.71131295 0.7449125 0.79783803 0.41641852 0.43648803 0.74305546 0.7757788 0.45777103 0.45334828 0.7217772 0.77121556 0.46884573 0.47861195 0.38266167 0.6408239 0.69999146 0.528248 0.52941716 0.5815455 0.6809342 0.71768236 0.7039032 0.68233204 0.70380735 0.6830472 0.6471963 0.6799559 0.6406461 0.21908797 0.3245548 0.6050688 0.72131324 0.8138982 0.36555552 0.843305 0.37999716 0.8025205 0.42423925 0.7199303 0.78819776 0.49319232 0.4919216 0.56179404 0.57582355 0.6875671 0.6409657 0.6752194 0.642175 0.7200374 0.6888134 0.5887823 0.69577104 0.7098203 0.54806584 0.5188517 0.6371266 0.5649703 0.18729722 0.36271614 0.4860217 0.5593195 0.49947232 0.48454309 0.5987202 0.61872035 0.65937436 0.23383257 0.7366928 0.12712124 0.8099525 0.82931054 0.14477527 0.60938036 0.08758229 0.34854722 0.44590244 0.47135252 0.5260503 0.6575763 0.60694206 0.6162536 0.5936053 0.70504147 0.6752707 0.6021222 0.5522612 0.5526812 0.6862351 0.70869285 0.45924973 0.6272929 0.40560615 0.5350732 0.49266702 0.55050325 0.61342186 0.29943508 0.5723422 0.619965 -0.05475144 0.72299874 0.5972415 0.7216426 0.051483624 0.48011547 0.5321279 0.06042528 0.06624297 0.33018354 0.41073066 0.47169945 0.5303397 0.58531475 0.6124189 0.61176 0.60824764 0.5439739 0.49870366 0.58187085 0.56619745 0.64486504 0.64309025 0.5381819 0.39796007 0.4896381 0.47954416 0.5235977 0.6584281 0.6504878 0.53761584 0.3586706 0.44076207 0.4566103 0.6383384 0.60808647 0.45799595 0.6868775 0.6522255 0.62411153 0.55681264 0.7066237 0.6533743 0.5412109 0.43290412 0.64402336 0.21668415 0.5912813 0.41379547 0.43884525 0.48846188 0.46990123 0.4977945 0.57417 0.63394725 0.11665093 0.06377003 0.5423018 0.047380537 0.42726675 0.48152268 0.1308766 0.21278413 0.25994042 0.42437392 0.337587 0.58904105 0.4859228 0.3430861 0.4423725 0.49751 0.60362315 0.5967244 0.6047596 0.5900986 0.5679915 0.55629724 0.647179 0.6296581 0.5060792 0.65182376 0.65617764 0.33846933 0.295291 0.3555403 0.4216801 0.47131643 0.6077808 0.6040442 0.591005 0.42579246 0.28946432 0.25483298 0.5418531 0.43551356 0.36723047 0.6138998 0.5911894 0.37942034 0.30878508 0.07098267 0.30540687 0.3854385 0.4062797 0.3305694 0.4130787 0.2558535 0.4622728 0.1345605 0.42951125 0.48426446 -0.03658749 0.09508344 0.03941819 0.13123813 0.29247662 0.07470558 0.1379874 0.24509606 0.24682622 0.24307775 0.3607967 0.4851455 0.5458226 0.5664555 0.53352 0.56488234 0.62870425 0.49082825 0.59123313 0.46552703 0.4782372 0.5746413 0.2086623 0.40216216 0.45194358 0.5405714 0.47928053 0.43891716 0.29195702 0.34676898 0.22964567 0.20888063 0.7505946 0.7552554 0.67711854 0.7781739 0.7597624 0.3027145 0.030342884 0.16741344 0.20432708 0.37134996 0.3297413 0.37911728 0.37840456 0.37756413 0.094013944 0.37173656 0.10805164 0.11310688 0.3136952 0.35236138 0.1269893 -0.1340369 -0.21018024 -0.14660038 0.13026617 0.03985047 0.43881667 0.2659531 0.07365561 0.51874244 0.4049741 0.48787037 0.57222044 0.55116177 0.5101663 0.50928867 0.43570936 0.4894066 0.5062129 0.48369214 0.40593964 0.4209441 0.25499246 0.24337673 0.13321587 0.09634561 0.07293178 0.16702579 0.10693481 0.08383773 0.2766876 0.49253613 0.44279605 0.31526017 0.6401193 0.60972285 0.6592516 0.5819652 0.51530856 0.42779213 0.7214937 0.7242093 0.5893148 0.52881825 0.43257383 0.73724985 0.7593982 0.73629916 0.6245041 0.52241117 0.69026864 0.6864002 0.6020067 0.3048768 0.2828549 0.084513 0.12454219 0.16262983 0.21707429 0.23832178 0.360161 0.13115814 0.37650764 0.8165541 0.80768263 0.78764653 0.7233014 0.094016604 0.75870454 0.74027526 0.7410271 0.09308285 0.67827433 0.51525295 0.035460196 -0.22050329 -0.23457813 -0.030884277 0.29360384 0.5074323 0.3852821 -0.06620314 -0.031402938 -0.27712163 0.17433569 0.58003944 0.6491201 0.37600926 0.36250877 0.61587894 0.672109 0.37517208 0.4347871 0.37804514 0.5730338 0.6132829 0.057460465 0.11146118 0.62120706 0.6329281 0.62021756 0.29434204 0.050565675 0.11414112 0.08818018 0.09204343 0.37995815 0.39900097 0.1187001 0.45076215 0.5056109 0.28684106 0.22475941 0.65502226 0.39352167 0.5782628 0.4550749 0.39789748 0.51952285 0.5324072 0.5126765 0.49376732 0.51566553 0.45431763 0.34220418 0.31007758 0.26383647 0.16221188 0.077044375 0.14375077 0.24990703 0.37488788 0.29379272 0.323931 0.8737924 0.8733015 0.82548493 0.75032926 0.21651024 0.2527116 0.20719877 0.35455978 0.8249874 0.83571565 0.8256501 0.7567946 0.14302306 0.77640045 0.79054904 0.61482847 0.47024766 0.37468562 0.65460086 -0.2968262 -0.33738467 0.5225705 0.49923173 -0.35237676 0.21141341 0.3448533 0.5108658 0.4132548 0.19231617 0.05498161 0.27213514 0.33395404 0.3586148 0.5335864 0.64637643 0.6956649 -0.17962973 0.13358502 0.22919612 0.4010079 0.57467747 0.678833 0.73322046 0.4789132 0.6031723 0.6777582 0.73064524 0.04757054 0.2549672 0.6311134 0.6897008 0.7259207 0.1625163 0.4736624 0.21269499 0.50036585 0.5501658 0.51616955 -0.024782568 0.41801918 0.55513346 0.5742392 0.565758 -0.09898445 0.12908474 0.104287736 0.6290501 0.6084899 0.57611376 0.15745771 0.11430057 0.37522197 0.632072 0.6361215 0.60257876 0.07073273 0.13182181 0.46505123 0.28788644 0.26581237 0.2981882 0.6267437 0.25936818 0.2817101 0.4813221 0.77766573 0.7620698 0.4989356 0.6889895 0.79303604 0.7906113 0.7178825 0.75992405 0.757527 0.3892669 0.3718193 0.23692124 0.14641768 0.0986431 0.116587386 0.17290905 0.21488093 0.3128528 0.36787134 0.26076517 0.88179016 0.9086281 0.89315844 0.68303496 0.25215304 0.27666155 0.82967436 0.8576956 0.5460437 0.24083853 0.7758095 0.715127 0.6413977 0.14277464 0.55782974 0.38144118 0.3594944 0.7038007 0.23293601 -0.14321455 -0.003312006 0.18265054 0.7462272 0.73928314 -0.16163918 -0.62219846 -0.139597 0.7279682 0.7163696 -0.090757415 0.04998938 0.15673438 0.22196873 -0.06705436 0.13068405 0.36340177 0.64632916 0.7163707 0.71274287 0.70244575 -0.18777764 0.4566471 -0.17650424 0.5168095 0.53325844 0.51823264 0.5636894 0.5506016 0.60207695 0.59025586 0.63572425 0.52175653 0.28274596 -0.0019923076 -0.031325087 0.6983104 0.6791559 0.4166719 0.10155968 0.72180617 0.6976231 0.63717735 0.32371747 0.69572616 0.64469534 0.46428585 0.15324079 0.05430773 -0.027210928 0.060049556 0.05085119 0.089641266 0.17000785 0.23584643 0.3099601 0.69611394 0.36613226 0.4367115 0.7473266 0.57667696 0.66386515 0.699304 0.6976064 0.67989576 0.62647176 0.6464999 0.6403513 0.41063163 0.3703059 0.2823707 0.115995705 0.12667382 0.15717427 0.18636926 0.3698614 0.837796 0.8342122 0.75220543 0.7327151 0.27671632 0.29045743 0.16816495 0.80242366 0.822826 0.27636892 0.09875146 -0.069969624 0.77233243 0.65631366 0.10717997 0.421143 0.41931364 0.46840274 0.56039405 0.66140693 0.40596133 0.4610186 0.49144047 0.42350587 0.6849824 0.41402686 0.44487026 0.41119105 0.29614615 0.172772 -0.18043804 0.67338145 0.37218386 0.39319974 0.33025187 0.21824773 -0.025651827 -0.10620068 0.34429824 -0.03850156 0.6827867 0.66736436 0.664934 0.34763247 0.34517798 0.25520307 0.009532452 -0.13104115 -0.17942095 0.4744488 0.32917118 0.30543345 -0.14966239 0.5185453 0.72066677 0.50541496 0.49409813 0.7001997 0.45115915 0.50325024 0.2589609 0.19634546 0.47510052 0.45155543 0.61564505 0.59357685 0.1896597 0.7190145 0.69478166 0.23012048 0.26186568 0.71215504 0.72985125 0.1366257 0.22940454 0.6757894 0.58024025 -0.2831642 0.19628628 0.48665917 0.33196622 0.08013143 -0.21184152 0.10386452 0.2474103 0.053938925 -0.080938965 0.39606404 0.41823754 0.2968099 0.48834842 0.47969443 0.40887788 0.50439113 0.55326176 0.57383907 0.6013605 0.62627965 0.5795766 0.591877 0.5895354 0.4182691 0.3252233 0.27424172 0.1442209 0.16666463 0.16209014 0.38069737 0.040335122 0.7690463 0.71200144 0.6278987 0.067311205 0.2695579 0.70129657 0.6314475 0.52467334 0.34919134 -0.20968118 -0.41325337 0.106517024 0.19446331 0.67761934 0.062053896 0.37895766 0.41718125 0.44106922 0.38366994 0.42614865 0.46178687 0.6059053 0.3054873 0.37664932 0.5657232 0.3005334 0.2759043 0.2944365 0.62323743 0.2740889 0.25193787 0.26436788 0.2268669 0.5051917 0.6110316 0.5731858 0.2624884 0.25808993 0.4816005 0.656067 0.6630691 0.6653805 0.25329804 0.20376617 0.14051838 0.0022769421 -0.06233623 0.44137055 0.69429773 0.71299195 0.7186104 0.68874466 0.21234055 0.23602812 -0.08019222 -0.1167342 0.44597703 0.6944325 0.68986785 0.6529664 0.56572723 0.26778886 0.62662107 0.61713773 0.62815714 0.39317438 0.27796963 0.22400056 0.13358939 0.35483634 0.5656729 0.17995329 0.6161295 0.21587053 0.62801296 0.25464606 0.5904411 0.63571066 0.546108 0.2170804 0.42939678 0.2300191 0.12952301 0.21214767 0.34845915 0.40367424 0.09334016 0.060389996 0.13904962 0.4486533 0.5094384 0.33551872 0.23701562 0.54603136 0.5602902 0.36913985 0.42926615 0.5849816 0.5951252 0.59771645 0.5879284 0.48904875 0.5392306 0.5358478 0.4835486 0.60602707 0.60458505 0.5248869 0.52437085 0.5452188 0.26323992 0.26174435 0.21646492 0.39885345 0.30816382 0.19632788 0.27136165 0.32693392 0.29326785 0.28568307 0.27624443 0.4834472 0.26109904 -0.28162616 -0.20566627 0.2588929 0.2154626 0.4167102 0.33024013 0.045252524 0.20074946 0.18684998 0.16915172 0.15970685 0.1758015 0.3416599 0.3920803 0.35600132 0.34993863 0.18185079 0.24767596 0.33547193 0.3452926 0.28637734 0.20344974 0.17259955 0.3375703 0.33629853 0.31221113 0.46927845 0.53491056 0.26108393 0.24579981 0.09209697 0.12378062 0.61402696 0.58404887 0.65215623 0.116328225 0.154444 0.646381 0.6558142 0.4372565 -0.06868015 0.023126718 -0.057443403 -0.04561323 0.1573438 0.11248079 -0.04923579 0.051066212 0.5597633 0.51648045 0.49116957 0.069151305 0.43166173 0.3852385 0.37649047 0.12414127 0.52820414 0.52231556 0.21756259 0.46055266 0.37810025 0.17323619 0.19833788 0.12088671 0.41381758 0.10786848 0.5107107 0.5638398 0.32868183 0.5816307 0.603714 0.35523984 0.42582464 0.20052472 0.6029475 0.6018034 0.48445982 0.51575744 0.48253107 0.4576577 0.41459692 0.55906415 0.5946195 0.59835047 0.600815 0.50026387 0.48640585 0.2672106 0.25873008 0.1940291 0.16297193 0.07130852 0.0201417 0.21110035 0.32801515 0.3442452 0.32048824 0.26183027 0.30345038 0.24835357 0.21773958 0.26380765 0.24864998 0.2048007 0.23927388 0.1962804 0.20786607 0.3130983 0.19120298 0.10807307 0.32540098 0.22884211 -0.2075866 0.1687742 0.17509529 0.2841752 0.11322004 -0.04466179 0.2892009 0.33612677 0.25009212 -0.11000629 0.2785633 0.15991905 0.22844975 -0.030145794 0.5156832 0.4258359 0.20541033 0.021474395 0.5680407 0.26218182 0.27642074 0.5843264 0.30553508 0.3464877 0.52851754 -0.106142096 -0.3215268 -0.30965784 0.4794143 0.43904382 -0.16576096 -0.41472238 -0.3607089 0.37378955 0.35102606 0.3586728 0.24316955 0.4077474 -0.16064468 0.053222854 0.46773455 0.33496284 0.27383026 0.14207721 0.066702686 0.19203813 0.116783515 0.1322445 0.06355326 0.033752397 0.06762467 0.58045375 0.21230263 0.64573663 0.38286933 0.3923959 0.050287656 0.09958715 0.6075727 0.6297423 0.43925357 0.4539029 0.4666184 0.4135864 0.3484896 0.4935538 0.58248377 0.58516014 0.5958581 0.16914156 0.19043797 0.13017364 0.27848056 0.3500955 0.18278444 0.16139275 0.029097855 0.07827902 0.28351167 0.3505397 0.31497657 0.24524267 0.33181286 0.35193902 0.2470487 0.42122892 0.26826072 0.31788364 0.3325646 0.27665845 0.14950183 0.25378278 0.25155 0.24245726 0.2646245 0.18645525 0.06991754 0.08989918 0.18536612 0.107672095 -0.0794703 -0.09381041 0.15113048 -0.31247836 0.04255174 0.22567803 0.28347132 0.27085006 -0.19410849 0.20947102 0.27923426 0.3008951 0.02923429 0.04459085 -0.08445026 0.25933772 0.29394865 0.47732762 0.3266536 0.16794306 0.20033735 0.53708154 0.5321068 0.28944147 0.5132276 0.31138074 0.36120602 0.35417017 0.33206832 0.4667024 0.48414397 -0.13667566 0.39708048 0.39740872 0.0043107346 -0.28474444 -0.2574674 0.37104195 0.21034887 0.08308894 0.28752005 0.25487518 0.2332427 -0.036029235 0.21628907 0.19101726 0.06378065 0.01207225 0.12121849 0.14588931 0.042880107 0.03208573 0.031117588 -0.0020495877 0.076442175 0.03599461 0.34067684 0.020397507 0.004083071 0.57299995 0.13521281 0.64815867 0.19610377 0.3272791 0.2468742 0.6112932 0.63769615 0.5398258 0.5648253 0.58652306 0.43822408 0.41864136 0.32965475 0.31555685 0.19087379 0.2663845 0.15791467 0.15993479 -0.007877171 0.22892529 0.30855528 0.34274942 0.2850631 0.2311919 0.5244888 0.5986733 0.3038063 0.33555147 0.042622138 0.31221095 0.5514622 0.54286623 0.3034699 0.31526715 0.5005903 0.5289898 0.32951266 0.32340822 0.23253548 0.23367941 0.3355095 0.37528306 0.2918938 0.1428332 -0.073846415 -0.031189673 0.04973025 0.20942259 0.15986031 0.18040088 0.14046764 0.24365671 0.121178 0.29668173 0.01383806 0.0814306 0.30116943 0.2989338 0.29046637 0.078701474 0.08998255 0.28276145 0.29758203 0.2929767 0.42253464 0.22953285 0.06323367 0.27028772 0.28912818 0.2913733 0.4790355 0.46978498 0.2840994 0.46073097 0.15572277 0.32123291 0.3054335 0.40417475 0.32854825 0.34775963 0.01911208 0.3656888 0.36302987 -0.098113045 0.35328853 0.31589925 -0.16554645 -0.45523962 -0.34357077 0.21420228 0.27224374 0.26343387 0.22864766 -0.007649116 0.03682215 0.03943678 0.031019477 -0.04893078 -0.08499311 -0.05705224 0.23242177 -0.089179404 0.3689138 0.054548755 0.46579835 0.21586303 0.24563298 0.6202755 0.3121673 0.26400113 0.36279044 0.6124746 0.63379025 0.33259538 0.43713635 0.5176332 0.56186 0.58621633 0.60121787 0.58675146 0.5172323 0.4190883 0.5541098 0.5180779 0.47891164 0.42780405 0.2632318 0.20242971 0.25677443 0.21249975 0.21724871 0.3018989 0.44404876 0.56166625 0.6360718 0.65640676 0.28120786 0.23660582 0.08270174 -0.15533042 0.1175165 0.21453233 0.6597713 0.65816 0.37974024 0.3700626 0.35031 0.32809913 0.28482765 0.2530228 0.5752599 0.33525884 0.35968894 0.20952159 0.23877867 0.3855459 0.22963291 0.19488226 0.038553983 0.24223807 0.027894713 0.2777593 0.27165148 0.27714133 -0.10983646 0.2893222 0.2767418 0.09087507 0.052967116 0.29634923 0.102680445 0.010365248 0.15571931 0.20261782 0.24396771 0.3586055 0.26982483 -0.023858592 0.12799306 0.31412148 0.34660506 0.30185688 0.13212612 0.32829624 -0.068022765 0.30030453 0.09485273 -0.47009492 0.30075577 0.2486068 0.27425295 0.13949265 0.031895153 0.024089761 0.06672588 0.1334119 0.07887531 0.27294755 0.2885515 0.28340173 0.22757894 0.015301347 0.2047607 0.16860919 0.21126592 0.24726042 0.35324514 0.3101879 0.35425207 0.56588954 0.58377224 0.39174932 0.4540051 0.4345883 0.39213088 0.26283258 0.3462519 0.5235162 0.57843196 0.43943143 0.50982416 0.5179294 0.40351492 0.4688121 0.54673 0.60463756 0.61197716 0.57387364 0.5027102 0.5571617 0.51299953 0.3591478 0.14018196 0.3408162 0.3021271 0.17920119 0.3704148 0.5752934 0.62691975 0.6752411 0.3422621 0.33905655 0.10435867 0.15334177 0.35057908 0.6899056 0.69719756 0.35399926 0.3765186 0.3402567 0.33662292 0.07238352 0.06658085 0.13622169 0.04350581 0.6549102 0.3158971 0.24011531 0.116292305 -0.0016705692 0.2584354 0.21870305 -0.005231127 -0.08527053 0.24048966 -0.058280334 0.25583482 0.020376876 0.2976277 0.28190297 0.3039215 0.11419657 0.029671311 -0.0059184954 0.3640182 0.30421495 0.04949829 0.33546484 0.458104 0.4642107 -0.17576152 -0.19635592 -0.17501569 0.0019720085 0.31280494 0.43263304 -0.017529353 0.22455826 0.40646172 0.38730872 0.32070583 0.2707407 0.10268192 0.39284882 0.4443259 0.44597808 0.396778 -0.38921568 -0.42788297 0.232832 0.14030518 0.2629196 0.115795165 0.12698111 0.14492601 0.24042396 0.28944683 0.28777137 0.24926011 0.18273093 0.05170674 0.105423816 0.17582878 0.20036119 0.28573477 0.36592185 0.44517845 0.37753567 0.32259858 0.4815477 0.52281874 0.45359752 0.47530764 0.17434473 0.34638655 0.42364037 0.49913573 0.5401967 0.5230303 0.56129175 0.5456103 0.47390962 0.5682625 0.595157 0.5690722 0.475862 0.5268414 0.53790575 0.5218127 0.3713246 0.7029929 0.71787727 0.72137415 -0.12332994 0.16187951 0.2867282 0.23964831 0.5107882 0.59396243 0.6403402 0.66310346 0.68666375 0.709365 0.2534547 0.29509377 -0.015111923 0.0089375675 0.13885336 0.09599252 0.09729347 0.29165155 0.5502486 0.6451241 0.6907574 0.6153761 0.62498623 0.28517592 0.31160104 0.20620486 0.28951305 -0.17014767 0.015278594 -0.22984406 0.6858952 -0.26557013 0.09482477 0.18870929 0.22429618 0.26948738 0.20295516 -0.1577471 0.35210943 0.2694394 0.17835203 0.3104869 0.3451915 0.19286059 0.03647682 0.30725974 0.33699554 0.11091697 -0.034752544 0.30310738 0.31398472 0.03323104 -0.12617435 -0.18593177 0.34141922 0.34782985 0.18629609 0.4031757 0.431553 0.49919385 0.4535653 0.48295307 0.4845435 0.51154387 0.44165874 0.0062061884 -0.08102183 0.17537898 0.3261695 0.44821864 0.48672956 0.4326439 -0.08050491 0.08360925 0.22200924 0.20273544 0.32248002 0.39433634 -0.19727263 0.453718 0.48724455 0.4777913 0.4033759 0.30820256 0.27437523 0.046371825 0.106276676 0.5005185 0.44496137 0.3558213 0.10185023 0.073284656 0.38129842 0.07354249 0.0914799 0.09729371 -0.17899491 0.13830793 0.19611359 0.37236428 0.31462622 0.3225645 0.31348488 0.057210684 0.3366527 0.34963506 0.31324798 0.3878526 -0.1211361 0.44085467 0.06510701 0.33706453 0.39293617 0.5557706 0.36536205 0.57792664 0.5622418 0.5160834 0.5947238 0.6885034 0.6956438 0.56186557 0.5804039 0.54365265 0.4591001 0.48687634 0.44209212 0.69512725 0.7095933 0.7096511 0.664642 0.48234063 0.032656893 -0.18715544 0.17677772 0.6182878 0.66759944 0.13243341 0.21333876 0.035233364 0.11293776 0.18395686 0.1780188 0.09189302 0.3711015 0.52015847 0.60776323 0.5446692 0.5920644 0.18060255 0.078737736 -0.060719345 0.07130493 0.4317881 0.5873042 0.45858955 0.4736028 0.48298442 0.2818027 -0.05394254 -0.101875134 0.2922641 0.2971692 0.1071576 0.39799148 0.40570736 0.27747136 0.28344184 0.3944812 0.25913602 0.23980227 0.3364803 -0.017784014 0.17310315 0.32058573 0.10645026 0.33824438 0.43362415 0.4258042 0.51672035 0.46760505 0.50525934 -0.05625453 -0.096991435 0.15199587 0.4603423 0.4837958 0.4756232 0.46082693 0.21320781 0.11114566 0.18937603 0.28973228 0.4187429 0.4012003 0.1892177 -0.06202601 0.4491917 0.497755 0.50417495 0.46757638 0.3688323 0.37101513 -0.15769258 -0.09877445 -0.15470749 -0.10401406 -0.055995353 -0.27965996 0.05216694 0.40059015 0.42964017 0.4250039 -0.091555946 -0.1465665 0.15022875 0.4475606 0.41230243 0.35433388 0.19337535 0.054834627 0.22325197 0.33742037 0.340199 0.343857 0.23780358 0.26109344 0.35739666 0.31161702 -0.08429736 -0.018100446 0.45638174 0.07972555 0.5672162 0.55406886 0.4677118 0.3523564 0.55194855 0.8238063 0.55432606 0.54814005 0.579043 0.55658674 0.5087177 0.61617756 0.6389146 0.60014117 0.4670425 0.5457589 0.46258906 0.2729214 0.08011317 0.64296067 0.6582835 0.655125