# vtk DataFile Version 2.0
Really cool data
ASCII
DATASET POLYDATA
POINTS 8384 float
55.454536 -46.29883 -81.012726
55.438225 -46.337486 -80.54575
55.44963 -45.83709 -80.51256
55.31036 -43.901333 -77.31152
55.305332 -43.825394 -76.96937
55.269722 -43.383015 -78.08493
55.121956 -43.246048 -77.33453
55.22247 -43.33003 -76.7911
55.27181 -42.46473 -77.98228
55.162285 -42.626022 -77.3596
55.282894 -42.625687 -76.7378
55.417698 -41.96566 -78.034805
55.359627 -42.073895 -77.533875
56.201138 -47.015457 -81.712975
55.879112 -47.0743 -81.20241
55.8702 -47.172832 -80.542885
55.853657 -46.982235 -80.08985
55.984894 -46.614414 -81.77512
55.66712 -46.537003 -81.35655
55.4978 -46.57023 -80.36301
55.69395 -46.424473 -79.88112
56.15927 -45.932186 -81.973305
55.658394 -45.80079 -81.201866
55.566006 -45.615784 -80.41456
55.83651 -45.132645 -79.23395
56.288853 -45.13733 -78.34997
56.19785 -44.834534 -77.3357
56.23098 -44.86415 -76.46287
56.201767 -44.769253 -75.663925
56.102894 -44.76882 -81.08678
55.922623 -44.636475 -79.22742
55.589424 -43.98256 -78.20897
55.47647 -44.130627 -77.49077
55.831795 -44.230415 -76.31438
56.04944 -44.366856 -75.63695
56.30308 -44.328938 -74.76898
55.999466 -43.26219 -79.31825
55.55329 -43.7256 -76.27638
55.73633 -43.42042 -75.819756
56.200382 -43.649776 -74.99465
55.84354 -42.40842 -78.89679
55.53004 -42.26741 -78.46097
55.50785 -42.49391 -76.3996
56.483524 -41.907528 -82.49807
55.700207 -41.908928 -78.33106
55.698147 -41.679764 -77.424484
55.671856 -41.944416 -76.70476
56.242966 -41.851257 -76.03962
56.207134 -41.33952 -78.13738
56.04999 -41.32423 -77.80918
56.910393 -47.602142 -81.18476
56.620834 -47.5712 -80.618286
56.902916 -47.55548 -80.162186
56.44264 -47.413887 -81.33798
56.336906 -47.427044 -80.51721
56.59063 -47.255154 -79.83773
56.85317 -46.86254 -79.19195
56.622818 -46.65042 -82.24975
56.75898 -46.274925 -78.91609
57.043373 -45.634106 -76.099
56.948956 -45.360806 -82.569664
56.412483 -45.069073 -78.439354
56.64665 -45.20716 -76.34039
56.791164 -45.211857 -75.39737
56.77366 -44.912003 -74.69892
57.17708 -44.85624 -74.11155
56.79693 -44.30735 -81.34813
56.58991 -44.4693 -74.5111
56.966145 -44.408665 -74.15587
56.719566 -42.891666 -82.507034
56.395107 -43.571407 -74.51297
56.893265 -43.678856 -74.13379
57.178345 -42.028694 -84.187195
57.094643 -42.61658 -83.368065
56.58315 -42.197945 -82.60483
56.66123 -42.15367 -81.38018
56.827625 -42.749107 -80.63194
56.753937 -42.8873 -74.63054
56.78412 -43.117996 -74.32146
57.36661 -41.248352 -84.784225
57.167812 -41.386658 -84.39467
56.722443 -41.604984 -83.22448
56.558483 -41.489952 -82.40474
56.847008 -41.266895 -81.280624
56.930935 -41.57781 -81.00234
56.6699 -41.670475 -79.23557
56.53348 -41.422752 -76.24354
56.782524 -41.546906 -75.71704
56.888405 -41.878883 -75.23335
57.40257 -40.921803 -84.847984
57.265427 -40.760094 -84.37646
57.02198 -40.773125 -83.45814
56.743183 -40.966633 -82.42705
56.94605 -40.69363 -81.78709
57.351295 -40.408657 -80.615875
57.370846 -41.12124 -79.60574
56.553658 -41.138527 -78.155525
56.679413 -41.147705 -77.305595
56.719975 -41.21415 -76.62792
56.98372 -41.25336 -75.90357
58.184303 -47.772537 -86.50072
58.23874 -47.80891 -85.75409
57.85969 -47.60712 -82.167854
57.306423 -47.64056 -81.40825
57.4266 -47.5901 -80.47988
58.17895 -47.260815 -87.06743
57.993084 -47.396072 -86.541954
57.978912 -47.404076 -85.69728
57.90314 -47.17823 -83.06264
57.436832 -47.526295 -82.14081
57.309864 -47.5203 -81.74158
57.67043 -47.232464 -79.61254
58.103413 -46.488533 -87.12186
57.873287 -46.651043 -86.55946
57.869473 -46.14853 -85.54176
58.303143 -46.480812 -84.30818
57.29412 -46.639782 -79.042854
57.497375 -45.89097 -77.94792
58.0109 -45.98457 -76.52414
57.759117 -45.811638 -75.59834
58.19836 -45.534134 -87.11636
57.925503 -45.903263 -86.29741
58.067883 -45.410133 -85.51589
58.295918 -45.46191 -84.681984
57.414703 -45.26911 -82.838974
57.43616 -45.364296 -74.63045
57.8725 -45.145523 -73.98896
58.320084 -44.86835 -86.97793
58.27757 -44.793037 -86.61354
58.425735 -44.20168 -84.834305
57.537693 -44.60288 -83.092094
57.867294 -44.556564 -73.58766
58.327953 -43.55853 -84.971596
57.647804 -43.677116 -73.74971
57.63085 -42.58931 -84.17256
58.12889 -42.485214 -74.03702
57.741512 -41.39218 -85.205246
57.867874 -41.833927 -74.70699
57.78217 -40.703323 -85.064705
57.54346 -40.520916 -84.65723
57.36767 -41.032654 -77.80567
57.686028 -40.952015 -76.440704
57.446575 -41.178757 -75.73289
57.956367 -40.165268 -84.800095
57.88815 -40.180332 -84.56141
57.77215 -40.0584 -83.67261
57.858788 -39.672558 -82.30236
58.07109 -39.509834 -81.13591
57.862186 -39.879906 -80.5468
57.89227 -40.04933 -80.0252
58.77832 -47.797085 -87.08792
58.54863 -47.985794 -86.42351
58.65836 -48.05351 -85.68829
59.05341 -48.05527 -84.903114
58.67229 -47.684505 -82.09128
58.536983 -47.78871 -81.6321
58.49944 -47.835365 -80.62857
58.85347 -47.14236 -87.5444
58.52681 -47.40622 -87.28382
58.502228 -47.616787 -84.56884
58.341766 -47.37241 -82.80486
58.454117 -47.426266 -79.92182
58.94323 -47.010555 -79.11706
58.77912 -46.337692 -87.7305
58.50774 -46.511356 -87.495964
58.19981 -45.599102 -74.70242
58.96383 -45.73605 -74.001015
58.828793 -45.370712 -87.79718
58.493385 -45.607693 -87.49608
58.26234 -45.13559 -73.66095
58.713818 -44.911926 -73.28471
59.0362 -44.69995 -87.79805
58.696262 -44.57536 -87.40048
58.43292 -44.370884 -73.29623
58.94537 -43.99408 -87.07764
58.641266 -43.966385 -86.4071
58.391624 -43.888214 -73.30369
58.266407 -41.943935 -85.369385
58.27726 -43.007133 -73.51973
58.98856 -43.103245 -73.16094
58.329018 -41.262943 -85.54672
58.309963 -41.22206 -85.499146
58.716225 -41.768215 -74.75862
58.872948 -42.1807 -73.83959
58.458725 -40.545345 -85.25389
58.623436 -41.143726 -76.33708
58.3826 -41.238674 -75.561066
59.454174 -40.272747 -66.25875
59.362087 -39.979187 -65.51327
59.4424 -40.157036 -65.04393
58.439857 -40.1944 -84.97196
58.447895 -39.923225 -84.438255
58.592854 -39.718185 -83.3548
58.413628 -39.450188 -82.65124
58.484406 -39.532803 -80.45335
58.245346 -40.030697 -79.82606
59.36015 -39.31125 -66.148544
59.284534 -39.264248 -65.361176
59.33169 -39.387135 -64.45729
59.390533 -39.081474 -63.601723
58.64046 -39.228653 -81.45616
58.642357 -39.26441 -80.96395
59.38326 -38.891247 -66.219406
59.337227 -38.26625 -65.64468
59.287495 -38.583836 -64.47606
59.4259 -38.47905 -63.515907
59.32902 -38.004887 -65.14799
59.39222 -38.054203 -64.31764
60.475624 -49.976105 -76.18994
60.468266 -50.34383 -75.949684
60.394573 -49.24579 -75.193924
59.103428 -47.938866 -86.96801
59.247192 -48.1376 -86.4547
59.387997 -48.13769 -85.56365
59.245815 -48.079655 -84.951546
59.482723 -47.84115 -81.54713
59.300076 -47.969585 -80.49636
60.329544 -48.43791 -75.248726
59.31454 -47.12349 -87.59111
59.35919 -47.312748 -87.47828
59.490986 -46.919537 -78.84155
60.383408 -47.189384 -76.86724
60.11666 -46.967857 -75.37076
60.09163 -46.74012 -74.9037
59.30488 -46.281742 -87.73457
59.173393 -45.98127 -76.23253
59.874065 -46.478596 -75.310486
59.75274 -45.905716 -74.24107
59.202072 -45.858337 -74.00716
59.44263 -45.215958 -88.053764
59.478043 -44.646324 -87.9503
59.573544 -44.555107 -73.00516
59.5507 -44.173798 -87.75756
59.57214 -43.73281 -87.25328
59.218925 -43.968296 -72.925446
60.279957 -43.017372 -71.141495
60.366333 -42.818085 -69.844444
60.21337 -42.40691 -71.065834
60.105404 -42.45445 -70.451645
60.301605 -42.400723 -69.80462
59.490562 -41.520817 -85.575874
59.930798 -41.692833 -85.4758
59.452274 -41.890438 -74.341805
59.441326 -42.05775 -73.84164
60.313644 -41.439396 -71.13497
60.20032 -41.56598 -69.671196
60.095795 -40.916107 -68.80788
60.23601 -41.300987 -67.680885
59.940773 -41.21105 -66.21663
59.93594 -41.11036 -65.70911
60.002235 -40.97748 -64.92031
60.185333 -40.751717 -63.63267
60.314888 -40.69191 -63.17001
58.93831 -40.966244 -85.56577
59.24531 -40.687653 -85.22431
60.04587 -40.578583 -78.48554
59.346214 -41.147778 -77.62741
58.96999 -41.22497 -76.24811
60.267902 -40.902943 -71.07517
60.11271 -40.73283 -70.26917
60.047127 -40.39115 -69.47616
59.986393 -40.772964 -68.47189
59.738884 -40.534817 -67.22433
59.534763 -40.41637 -66.37602
59.54638 -40.52206 -65.703125
59.76304 -40.54263 -64.64205
59.788277 -40.17026 -63.598034
60.20749 -40.244656 -62.87613
58.964237 -40.070724 -84.86609
59.134468 -39.828873 -83.34026
59.854694 -39.877747 -79.42471
59.876526 -40.19686 -79.21735
60.31224 -39.94583 -70.544846
60.148518 -39.855316 -69.73168
59.963734 -39.305458 -68.33783
59.746193 -39.654976 -67.53936
59.633846 -39.217793 -66.75947
59.590984 -39.63028 -63.504673
59.889294 -39.391525 -62.79018
59.430256 -39.212868 -82.27666
59.44106 -39.067795 -81.20445
59.490017 -39.221916 -80.73065
60.090683 -38.858803 -68.37869
59.914005 -38.688713 -67.4392
59.617046 -38.81686 -66.800644
59.65607 -38.439583 -62.872444
60.098053 -38.364296 -62.332054
60.183437 -38.040783 -67.25485
59.836765 -37.757416 -66.35086
59.62792 -37.619274 -65.37068
59.618843 -37.699722 -64.395
59.68687 -37.70303 -63.453094
59.972996 -37.829956 -62.653862
59.969017 -37.277943 -65.70964
60.0254 -37.243656 -64.822395
60.031506 -37.2994 -63.493256
60.15523 -37.359306 -62.892284
60.41509 -33.950066 -79.38538
60.40193 -33.89095 -78.70514
60.429546 -33.463665 -79.954
60.319042 -33.427624 -79.24743
60.36035 -33.25579 -78.81198
60.421654 -32.958954 -79.96432
60.381607 -32.95175 -79.23176
60.41908 -32.92714 -78.83292
61.376244 -52.780823 -76.177124
61.38621 -52.812737 -75.89942
61.333412 -52.195034 -76.81631
61.292515 -52.563675 -76.318504
61.229553 -52.45989 -75.78825
61.20894 -51.331944 -76.89211
60.922783 -51.517956 -76.216255
60.882393 -51.393494 -75.72184
60.943287 -51.124775 -74.957825
60.964428 -50.542088 -76.953606
60.611378 -50.367878 -76.38094
60.73356 -50.543278 -75.21559
60.8028 -50.438934 -74.73559
61.224995 -50.0406 -73.75138
60.89453 -49.61787 -77.07571
60.611794 -49.258846 -74.72466
60.814163 -49.286114 -73.83553
60.06341 -47.595608 -84.47791
60.352276 -47.87274 -80.993454
60.493988 -47.74801 -79.620384
60.762367 -48.578102 -76.797646
[...]
POINT_DATA 8384
SCALARS features_00 float 1
LOOKUP_TABLE default
0.7324761 0.71369076 0.63785815 0.45158237 0.47313368 0.5395999 0.5771636 0.5634551 0.60192364 0.63336325 0.65000963 0.57648623 0.61604357 0.6969283 0.74418247 0.7443197 0.7241354 0.72375065 0.7499441 0.7237464 0.66628194 0.6428384 0.6573624 0.5876819 0.41674125 0.30024546 0.29264027 0.37800276 0.47262642 0.41043672 0.34911305 0.4167219 0.39943507 0.44120038 0.48842084 0.5348214 0.35568497 0.4990278 0.5471022 0.5502204 0.4682193 0.5456541 0.65822935 0.39937353 0.5313247 0.5861292 0.629138 0.5761849 0.4819085 0.5226147 0.5705986 0.6264968 0.5657544 0.65609264 0.6812157 0.60722333 0.47970486 0.6212068 0.44421598 0.36979264 0.40185136 0.30520076 0.3680178 0.47164285 0.51109385 0.50523686 0.22482385 0.53221667 0.5232175 0.2648179 0.55258083 0.5326041 0.487696 0.35318768 0.3822795 0.30028325 0.10473308 0.56918186 0.5508937 0.6123339 0.5792455 0.47824636 0.41535234 0.34837133 0.3087987 0.30211416 0.5326585 0.5057705 0.51484233 0.63052535 0.62244916 0.5757797 0.46298754 0.44983703 0.33661672 0.18123083 0.43812168 0.5051911 0.5144273 0.48440787 0.75583136 0.7017107 0.36881882 0.49365354 0.49296454 0.7386762 0.76213425 0.72291195 0.28199744 0.437128 0.48776382 0.4186468 0.6997552 0.7296441 0.6001947 0.47823358 0.37261882 0.17001495 0.17730254 0.36477447 0.6315532 0.6253004 0.43735427 0.29185092 0.21781215 0.4663678 0.4591212 0.5787465 0.5388212 0.13454409 -0.0021378305 0.47704545 0.1464809 0.51367384 0.3617061 0.49676186 0.61524117 0.44194305 0.6324742 0.6370597 0.38639984 0.41514122 0.44341463 0.6320934 0.6309431 0.6047989 0.5109319 0.3929239 0.36006522 0.2973707 0.7376107 0.7392795 0.6656354 0.47449082 0.29674223 0.3450415 0.3885463 0.7005768 0.7304421 0.48067373 0.2449363 0.3756876 0.2869635 0.6467341 0.68041146 0.37966552 0.3286973 0.6062448 0.6341812 0.43160054 0.3966231 0.57944816 0.58277225 0.4458203 0.53711385 0.47556168 0.4731921 0.5601625 0.52394557 0.47483605 0.5928272 0.59724253 0.36524403 0.43383786 0.6011154 0.282103 0.3584074 0.414844 0.46405876 0.5000516 0.6067594 0.5931107 0.49421188 0.44660026 0.32195228 0.26414597 0.43716192 0.49121356 0.5762054 0.7417991 0.37041888 0.34277397 0.44221276 0.49271753 0.6007634 0.7951633 0.5361457 0.65116704 0.4486779 0.47579014 0.37935194 0.7254704 0.70249104 0.5601011 0.44916362 0.27718276 0.33570224 0.24682157 0.66502035 0.678381 0.19157998 -0.078562275 -0.057479903 -0.005143646 0.59903157 0.039722793 -0.031017087 0.19937022 0.2898755 0.5593574 0.5451689 0.31840098 0.51449937 0.46666467 0.38303092 0.37372243 0.39354366 0.3852064 0.38808447 0.38776028 0.3691055 0.19689055 0.31680933 0.3682741 0.35159785 0.3611005 0.33008295 0.3643167 0.4228621 0.44786045 0.522869 0.6825863 0.74081415 0.5396682 0.4959216 -0.13398583 -0.059930645 0.22493106 0.3234824 0.33639932 0.3348562 0.33066 0.3730673 0.40865666 0.446129 0.546404 0.6826887 0.7842432 0.55084276 0.4415311 0.07509429 0.021917738 0.28738904 0.3095081 0.29095897 0.3486109 0.39742464 0.72522235 0.8702182 0.3684855 0.3049503 0.26950884 0.26054907 0.3389493 0.39876574 0.9171541 0.9574455 0.33561337 0.42912543 0.51213056 0.65296197 0.82591385 0.9335829 0.46764702 0.5856559 0.8434117 0.92238736 0.61275303 0.67235196 0.5713618 0.6375259 0.6749929 0.58663744 0.6532989 0.67959595 0.72286767 0.7253052 0.67012197 0.69452924 0.6737596 0.61698365 0.5877613 0.56232375 0.5653969 0.52592844 0.4870818 0.48235613 0.4945899 0.48558438 0.44346672 0.39865932 0.4332911 0.10390578 0.1845403 0.19476128 0.25433975 0.30570588 0.36738127 0.37537852 0.341992 0.626487 -0.0884022 -0.07881746 -0.04674904 0.23171175 0.36595175 0.459983 0.06172037 0.46796757 -0.053992204 -0.05739108 0.36244345 0.37897167 0.42489547 0.26826552 0.38361543 0.39632043 0.18605933 0.122105226 0.39309558 0.3794847 0.3915894 0.408953 0.4919936 0.19898435 0.2704152 0.62078977 0.70983124 0.772578 0.2641512 -0.093671486 0.7920389 0.8384716 0.22828917 -0.015100405 -0.1079577 -0.15321022 -0.13477844 0.23188326 0.86707526 0.887848 0.27841026 0.06850084 0.16148277 0.16606353 0.20382711 0.17797253 0.1863453 0.9379745 0.15890971 0.2147105 0.29452997 0.9292811 0.9446143 0.45293686 0.87624276 0.92223996 0.34996045 0.48411316 0.56497973 0.48607737 0.58018154 0.67549014 0.73282194 0.23764811 0.35500702 0.50596964 0.68867135 0.73911417 0.35422972 0.42452186 0.50315326 0.65653217 0.7021731 0.7240366 0.4848942 0.49609345 0.48973918 0.6733595 0.71038234 0.5369828 0.5990268 0.62071675 0.57562494 0.631272 0.63107634 0.7956382 0.7720593 0.7812727 0.79757905 0.7163299 0.71182835 0.7253083 0.70861405 0.60311276 0.67118585 0.5319895 0.62259007 0.47110742 0.3640641 0.3466479 0.30060887 0.19256596 0.027173942 -0.05796791 -0.10369228 -0.12270337 -0.010742635 0.2971487 0.28713053 0.32524374 0.318511 -0.16793436 -0.0952923 0.24153677 0.16853054 0.11344342 0.087191574 -0.11620432 0.23175494 0.27569434 0.37110823 0.12973642 0.38126808 0.38037905 0.3125596 0.035198648 0.30430564 0.5146434 0.7095336 0.7524332 -0.036006078 -0.04795922 -0.3429091 0.79029936 0.8204479 -0.058646947 -0.10178551 -0.1309206 -0.008294452 0.8022486 0.84268427 -0.10858897 -0.1331805 -0.03678707 -0.13341019 -0.118607886 -0.11011245 -0.0038816177 -0.022042513 0.020029798 0.085336775 0.8170294 0.8774811 0.12424587 0.04787385 -0.05409791 -0.015637632 0.8133645 0.8685261 0.8955634 0.26203507 0.32969868 0.15535024 -0.10023025 -0.11776612 0.3206558 0.7677947 0.8309103 0.06833143 0.21116588 0.5336338 0.5530981 0.2597621 0.16292027 0.69663215 0.2644641 0.48628703 0.2379669 0.18003987 0.70060396 0.64265907 0.41517618 0.49561608 0.5623366 0.5517276 0.24895835 0.33850893 0.27562433 0.7319907 0.47441775 0.53292346 0.58212197 0.60229754 0.3941892 0.41836464 0.61098707 0.7114222 0.6841768 0.5749565 0.61482507 0.62711096 0.4153354 0.4816525 0.45567802 0.4253993 0.5339183 0.6303096 0.5924476 0.55419105 0.5286466 0.62006235 0.8688234 0.8717822 0.86103374 0.84149337 0.8368299 0.8087637 0.82820004 0.80594504 0.69186735 0.6073976 0.6110809 0.5915948 0.5083225 0.7191565 0.54284 0.46853328 0.5841584 0.5712758 0.5347319 0.4551618 0.33238232 0.5482916 0.38337386 0.52632546 0.5158137 0.5086678 0.44735008 0.33807552 0.1892486 0.09824678 0.039370634 0.3742217 0.29057446 0.5058095 0.48146635 0.46473286 0.41666764 -0.14911631 -0.1342532 -0.21733324 0.22879188 0.22590163 0.41024095 0.35759002 -0.21401808 -0.08114473 -0.103691734 0.20383267 0.22174065 0.1882249 0.124377176 0.1131365 0.11506777 0.12143655 0.27686083 0.29508507 0.30075255 0.10442662 0.090078086 0.29628178 0.21714994 -0.053716514 0.13202286 0.24981703 -0.107138745 0.3776362 0.6420232 -0.31430143 0.7302556 -0.2857514 -0.17513362 0.7337836 0.025949277 -0.15336193 -0.16275111 -0.18534091 -0.011218887 0.6370878 0.7527174 0.31347066 0.34018704 0.21255699 -0.047138833 -0.17911491 -0.19028075 -0.12155671 0.03356898 0.08311241 0.027407952 0.75107706 0.8106812 0.41442472 0.3978435 0.2583832 -0.020576421 -0.13749124 -0.057340853 -0.24241215 -0.21034253 0.09954115 0.18576907 0.13670693 0.35775498 0.39805073 0.38078985 0.23873493 0.038970597 -0.006795317 0.21057318 0.22505493 0.26599154 0.27869552 0.17329787 0.2126037 0.12118254 0.36236465 0.4206419 0.32087514 0.35488853 0.23240674 0.06250936 0.42057806 0.30228496 0.31590247 0.32599914 0.20472014 0.43406272 0.4818755 0.49557036 0.24128589 0.20736414 0.44076478 0.35226965 0.32504722 0.22859445 0.39261252 0.52452934 0.5097157 0.2045723 0.5035756 0.4842428 0.54530007 0.6007236 0.5736896 0.24825346 0.4085237 0.5937185 0.57499343 0.6020862 0.65594536 0.6708125 0.30636954 0.32787007 0.6791593 0.7075424 0.7091251 0.2799666 0.3369703 0.5256821 0.43564355 0.30460536 0.4606524 0.573043 0.5293113 0.48115128 0.6738736 0.62131697 0.5429237 0.7103403 0.63459706 0.57371944 0.6994982 0.66384554 0.6271061 0.89615774 0.89697534 0.67657137 0.9400498 0.9136095 0.9014895 0.8295617 0.734342 0.7408585 0.69753814 0.65537035 0.6196294 0.8747471 0.62095565 0.7462105 0.7150494 0.64921755 0.62491935 0.5379778 0.69043565 0.5194637 0.46795765 0.6988261 0.6301124 0.2860986 0.007964961 0.04466173 0.08355709 0.5073559 0.41418612 0.3889849 0.6347984 0.56081825 0.051395506 0.041128136 0.073741235 0.073468626 0.37692475 0.40311855 0.262174 0.4990532 0.47113597 0.024554905 -0.025256686 -0.06197209 -0.06770295 -0.08271477 0.2685721 0.45699018 0.41961485 0.37402576 -0.11893158 0.27221078 0.3155377 0.27382916 0.27064332 0.2063587 0.12354158 0.15539034 0.11729768 0.027630806 0.1037457 0.06833232 0.15972923 -0.0016231164 0.11871725 0.05549413 0.08778613 -0.18119515 0.10246862 0.16488823 -0.14871128 0.20172052 0.47297767 -0.13572317 0.6071681 0.1629148 -0.0059279725 0.31733245 0.19274743 0.29917473 0.34538037 0.36659938 0.35401577 0.2841563 0.28986123 0.2985723 0.16357002 0.1917881 0.4939915 0.039011437 0.2957347 0.30457103 0.08922679 0.2502832 0.3172525 0.32367322 0.50170064 0.13198927 -0.019303225 0.3480628 0.31581956 0.4746914 0.55087256 0.50698113 0.46451217 0.29673684 0.2270646 0.16454974 0.30524522 0.37549305 0.5591072 0.623852 0.50868934 0.44803193 0.22967242 0.15291838 0.07717329 0.66753185 0.70030844 0.7169629 0.6877075 0.6198766 0.52219903 0.47488898 0.13437998 0.18530326 0.70926505 0.7053739 0.22981772 0.26226154 0.3142731 0.21815893 0.2552612 0.6169702 0.6644421 0.36342382 0.31257275 0.67909575 0.5501677 0.4241192 0.6666952 0.69691145 0.6681241 0.5854228 0.521968 0.66766185 0.6636661 0.65149635 0.5894123 0.72363764 0.6801107 0.6544951 0.9506663 0.918547 0.8232532 0.785571 0.783821 0.7280296 0.6206596 0.9274956 0.82506764 0.741114 0.6435583 0.7635945 0.7666838 0.41024595 0.067545876 0.74179703 0.711091 0.8231301 0.5034726 0.7563302 0.7478163 -0.01494468 0.09328827 0.13529749 0.20284171 0.61481786 0.704007 0.14327939 0.12512648 0.4210627 0.27021736 0.58960104 0.5195085 -0.06491241 -0.08469188 -0.11494977 0.2837435 0.33309788 0.4382382 0.41603708 0.3365009 0.3227319 0.35666752 0.3008778 0.29603028 0.23029044 0.20870438 0.06596274 0.076411605 0.05391361 -0.0901648 0.08283642 0.0058905333 -0.024199277 -0.07288021 0.016215883 0.016458645 -0.21526979 0.026435338 0.038276218 0.05296676 -0.31618848 -0.25893137 -0.18601641 -0.20560859 0.10876813 0.007387584 0.17013074 0.061610438 0.22048837 0.27812955 0.21612903 0.24586552 0.28243926 0.31366116 0.23505057 -0.035256274 0.2458409 0.19716874 -0.23043248 -0.05695672 0.043365076 0.45482606 0.38089037 0.11416991 0.18307203 0.23939574 0.3132265 0.47542715 0.4982717 0.4547906 0.053168833 0.35057938 0.54317194 0.54470265 0.483361 0.55218756 0.5432829 -0.08975385 0.4968884 0.46119374 0.41821492 0.34287602 0.641699 0.6595248 0.6258147 0.56175923 0.5759145 0.5475699 0.43394667 -0.017297849 -0.13113606 0.50329566 0.49769253 0.42545286 0.36314318 0.689672 0.65676284 0.6264571 0.5372306 0.42368978 0.15741894 0.049057864 0.09549393 0.014174778 0.06113671 0.16677006 0.16932112 0.46431428 0.21328755 0.18938951 0.25596663 0.54149264 0.24479182 0.23387924 0.3266645 0.37420353 0.6015496 0.38964042 0.38669395 0.42280662 0.58471346 0.5909314 0.54906106 0.5387609 0.79307413 0.74171096 0.672357 0.6373018 0.79197025 0.8133402 0.5308894 0.30025372 0.28754282 0.21192352 0.8437133 0.77380884 0.779974 0.24223827 0.17510314 0.13499507 0.124976374 0.13915212 0.27013028 0.7765038 0.58504856 0.6344662 0.76148266 0.088725746 0.27518314 0.43587136 0.75270486 0.7233125 0.18049005 0.1038331 -0.008180499 -0.2612266 0.08558457 0.18795091 0.6490432 0.5279833 -0.23115061 0.14787757 0.2712067 0.3286186 0.44142568 0.3646367 0.33914673 0.33734187 0.27535233 0.30059987 0.23926431 0.094464414 -0.02480986 -0.089498386 -0.091489434 -0.10627021 0.2961196 -0.15502897 -0.023695327 0.4446245 0.39745885 0.24637407 -0.15607263 0.14531124 0.24041785 0.47387117 0.4134413 0.24107492 0.024988968 -0.33398455 0.4835044 0.3951511 0.18931377 -0.1509229 -0.20399338 0.28322864 0.38410705 -0.01734357 -0.15352261 0.16724274 0.026621934 0.12851824 0.17251733 0.14326966 0.1516011 0.24114293 0.19277266 0.3059112 0.24708016 -0.13434595 -0.1796587 -0.22741029 -0.16629264 0.37125623 0.28748375 -0.047505878 -0.14359145 -0.21578401 -0.50200987 0.3742957 0.41288072 0.4347329 -0.084773734 0.3365055 0.3484018 0.31917948 0.21985136 0.43238997 0.40626615 0.48130223 0.39517486 0.43761665 0.27962333 0.032942973 0.5433551 0.5297036 0.5185605 0.517892 0.45978904 0.5259454 0.4455592 0.36889315 0.33644012 0.2801324 0.5757772 0.57681316 0.502463 0.50364274 0.09534046 0.11729015 0.4718532 0.392219 0.36004484 0.3109377 0.4198361 0.4102389 0.39737 0.17925079 0.26504996 0.27615616 0.2213643 0.27958843 0.3195393 0.27945587 0.3851366 0.36414358 0.3540222 0.44716662 0.43781865 0.3826554 0.4272455 0.48638755 0.36399257 0.32570052 0.23311833 0.26887256 0.37922347 0.41899934 0.38450179 0.34592104 0.81471294 0.8659476 0.7886696 0.5720578 0.22122501 0.36166838 0.33201358 0.18574476 0.7792295 0.7876835 0.08742812 0.26007876 0.2764335 0.7731628 0.7854104 0.27213952 0.23651843 0.77840555 0.66765344 0.20466015 0.14168236 0.23509282 0.19356412 0.5535239 0.44710562 -0.14634311 0.030193478 0.24276273 0.365171 0.3187315 0.21263477 0.21401097 0.17900857 0.10281518 0.070099935 -0.13545863 0.08044668 -0.22952822 -0.3299316 0.016436458 0.2437389 0.22306423 0.08992243 -0.1831967 0.17322607 0.28821057 0.34927642 0.3529097 0.4263078 0.36565772 0.3821863 0.38994962 0.49849018 0.5006206 0.38430417 0.5123066 0.50492287 0.32424524 0.31887856 0.4902656 0.46088713 0.3847561 0.15543269 0.23845923 0.28178555 -0.016681775 0.21622747 -0.03262052 0.07918437 0.18194489 0.08489534 0.25235534 0.15042183 0.15577763 0.23815046 0.29445988 0.20401502 -0.17314076 -0.188205 -0.24385452 -0.393084 0.22274148 0.2965516 0.23069498 0.25959194 0.336675 0.23394962 0.23991339 0.060534857 0.33187276 0.44386366 -0.35133737 0.21908039 0.19332933 0.08313953 0.39262223 0.11816452 0.03242222 0.36644986 0.26794094 0.1787374 0.34903377 0.3543556 0.27807248 0.045445524 -0.12817563 -0.32886508 0.09980801 0.18962473 -0.02507922 0.12946725 0.25210854 0.22939476 0.007707878 0.2377657 -0.096085675 0.04431255 0.12321004 0.13466255 0.11355306 0.24330577 0.35477424 0.21474425 0.6026001 0.7153277 0.7163447 0.258571 0.26684397 0.115189545 0.34025073 0.35186133 0.4742391 0.6319384 0.7334286 0.7412062 0.14323463 0.12271458 -0.009387903 0.11261141 0.1339038 0.22649293 0.24328342 0.5937808 0.7232848 0.7475116 0.6039984 0.6700675 0.25388482 0.31842268 0.28404257 0.18064478 0.16112319 0.24739176 0.17613281 0.085387684 0.8841969 0.7268188 0.07288501 0.7995719 0.66891277 0.4727798 0.15437284 0.24392267 0.28241202 0.34305507 0.66413736 0.61315876 0.06037859 0.22599223 0.32514578 0.27066758 0.5996834 -0.40534985 0.08010924 0.21037409 0.01760719 0.118480355 0.051455513 0.123549946 0.11916822 -0.4293017 0.0807186 -0.0043717474 -0.020434916 0.20576128 -0.084598415 0.1738996 0.4008763 0.44911242 0.49309415 0.26877037 -0.27351525 0.47880766 0.49836254 0.44071132 0.4435535 0.46044183 0.40972227 0.3623269 0.41430506 0.41467494 0.3283683 0.34443045 0.3655811 -0.06582145 0.2289479 0.13216646 -0.057885863 0.19380301 0.05824434 0.20932901 0.037769884 0.21620753 -0.3632094 0.15346016 0.11128713 -0.34075928 -0.4677158 0.101783924 -0.63782287 -0.38946962 0.058851212 0.15707007 -0.3849246 -0.20015556 -0.26270795 -0.4770268 -0.3187869 -0.041768026 0.07823643 0.31142822 0.31551737 -0.26271313 0.07219443 0.3489845 0.34261855 0.30070558 0.24599499 -0.09870915 -0.4433102 0.07123971 0.29270232 -0.16368207 -0.0064921267 0.10996041 0.07297919 0.029932182 -0.24718541 0.5877453 0.61064374 0.63002044 0.10322113 0.032959193 0.68671185 0.639905 0.14696953 0.14605302 0.17498371 0.46366453 0.7199209 0.69191885 0.07188664 0.07648484 -0.056609355 0.0407464 0.099136904 0.042939104 0.044377655 -0.005550258 0.14593175 0.38536206 0.51389796 0.74074185 0.7075026 0.04528263 0.09721273 0.1555101 0.37131917 0.5560149 0.67069584 0.71523815 0.5302125 0.62663686 0.68126243 0.19526473 0.17107248 0.13712126 0.13630803 0.08626725 0.2952926 0.5193678 0.20365086 0.17580305 0.11511182 0.099960044 0.09591008 0.41488633 0.50868547 0.54428613 0.52812684 0.11260301 0.13284028 -0.050212618 0.38180768 0.42617977 0.47859913 0.014129028 -0.10808619 0.079301134 -0.11363806 0.25493175 -0.068786114 -0.15503627 0.076463774 0.29275537 0.36298224 0.29593015 -0.26353946 0.015893757 0.2929576 0.24079655 0.17556812 0.2498377 0.25570193 0.014835164 0.16323079 0.08833811 0.04675372 0.04016182 0.05261084 0.045361463 -0.048804343 -0.3880266 -0.1289146 -0.33500952 0.12321415 0.095951945 -0.057032388 0.03494432 0.10811714 0.090602435 -0.20781237 0.42628604 0.52259266 0.55460817 0.19764039 0.16590789 0.55947274 0.5530519 0.18202353 0.5278201 0.3636498 0.4578843 0.22176324 0.3830334 -0.0762655 -0.14544217 0.18254845 0.23493104 -0.24484083 -0.1889773 0.029041648 0.1399121 0.1606151 0.19165869 0.28909504 0.2600493 -0.09825592 0.19492601 0.30955628 0.28566542 0.20938349 -0.31256604 -0.060794294 0.2001902 0.26227102 0.24971497 0.17916109 0.25193587 0.10980906 -0.12650381 0.15804857 0.24793339 0.082679726 -0.033637002 -0.570434 -0.5321073 -0.48810554 0.19415358 0.16801427 -0.5515661 0.14268257 0.20254344 0.29330006 0.05872061 0.12523022 0.34496358 0.34953886 -0.02684455 0.014292862 0.32280967 0.26228696 0.17223153 -0.20945483 -0.18067464 -0.019741347 0.041597698 0.41398895 0.06667 0.08632265 0.58248913 0.59132737 0.11414585 0.10058599 0.6138842 0.10169601 -0.04674533 0.7013965 0.087061666 0.113178894 0.1712709 0.09975333 -0.014872159 0.058381107 0.16823563 0.6910771 0.68511426 0.20317024 0.29450274 0.3244791 0.26260436 0.17213872 0.3762015 0.48002654 0.6118572 0.64585906 0.4850417 0.5371394 0.6215322 0.6554036 0.63546145 0.4402846 0.45065123 0.53139853 0.57004714 0.5519135 0.35964647 0.33355653 0.3273397 0.3281057 0.33346224 0.16288503 0.2029584 0.24593483 0.19797719 0.1355374 0.092646636 0.10778174 0.31036782 0.32609472 0.41168195 0.39725485 0.15471767 0.16582905 0.1816852 0.04638067 0.12815663 0.23866053 0.4519763 0.40918133 -0.18797362 0.036834337 0.18851537 0.27397725 0.46385092 0.058341697 -0.023353364 0.26570937 0.2692374 0.4522583 -0.1602068 -0.38223183 0.1604578 0.21686532 0.29612827 0.36767524 0.16112533 -0.20668441 -0.28282458 -0.25390673 -0.18599938 0.1704019 0.36944956 0.43653142 0.46799088 0.38893297 0.24098271 -0.014991276 -0.19579773 -0.13095027 0.21953574 0.44494247 0.41299933 0.37942827 0.25135103 0.06547098 0.15435712 0.3998586 0.3272617 0.3388964 0.017990015 0.3227049 0.2343335 0.15436564 -0.025179818 0.115255035 0.07627976 0.0085219275 0.0050380174 -0.008343089 -0.10994668 0.05777974 -0.25246018 -0.13452524 0.083600625 0.024113312 -0.17023677 0.49526197 0.5833106 0.60501707 0.20885105 -0.17810647 0.07077737 0.6288198 0.6206158 0.2527468 0.2579062 0.6007668 0.25811332 0.1621516 0.06442061 0.50767064 0.5419986 0.14965841 -0.055826142 -0.03812951 0.42167532 -0.4194564 -0.021279044 0.20312041 0.27720344 -0.1517533 -0.4077487 0.04276924 0.23134954 0.20408508 -0.032488592 -0.23941073 0.09731534 0.2931386 0.28611547 0.24850538 0.13161153 0.0076796394 -0.26607543 0.03742277 0.3065749 0.31019846 0.26484847 0.16141394 -0.22731578 -0.3885353 0.30517125 0.28451535 0.16521583 0.31393164 0.29990786 0.26115733 0.3157485 0.30681366 0.20534822 0.27791953 0.18869662 0.37549713 0.15872416 0.25246167 0.19161588 0.25509053 0.2133857 0.30277222 0.05418831 0.2428008 0.30483133 0.1717403 0.02712845 -0.08505842 -0.090641364 -0.11590567 0.03381137 0.35320315 0.36007738 0.10002677 0.10178846 0.39684325 0.17132539 0.17322251 0.5614172 0.19723913 0.21828736 0.1886374 0.13944964 0.23793432 0.21350057 0.23909894 0.3247169 0.19768888 0.0064952374 0.12854432 0.14939111 0.57846534 0.30822635 0.35650593 0.39170897 0.36292905 0.6682589 0.73089314 0.73435557 0.7256788 0.5008948 0.5242648 0.5857756 0.6919698 0.6822218 0.41209525 0.45221436 0.6148072 0.51368946 0.5061095 0.3062509 0.47632182 0.46125704 0.5008474 0.48135924 0.05037559 0.17802982 0.2178821 0.32562113 0.3170121 0.31292224 0.43180814 0.42284352 0.40464425 0.3059238 0.07503982 0.36742672 0.32801017 0.29355675 0.30107692 0.21440157 0.3752693 0.33623594 0.10675396 0.38499308 0.31929386 0.25998643 