# vtk DataFile Version 2.0
Really cool data
ASCII
DATASET POLYDATA
POINTS 8197 float
30.255829 38.214706 76.47545
30.20812 38.861313 70.90317
30.16861 38.83389 71.55224
30.191828 39.066097 71.92742
29.982168 38.798813 75.6815
29.96655 38.73565 76.52308
30.170591 38.71409 77.04599
30.421091 39.848755 69.13242
30.32417 39.70404 69.63131
30.120558 39.543537 70.611206
30.069782 39.45033 71.38661
30.231115 39.26242 72.06951
29.788624 39.485195 75.76544
29.764696 39.408745 76.340775
29.994148 39.490166 77.01802
30.35626 40.50747 69.03249
30.309269 40.49492 69.40289
30.252808 40.407234 70.42718
30.376198 40.305492 72.11094
30.077065 40.24197 74.9306
29.853495 40.23954 75.45261
29.79046 40.15726 75.99579
30.21506 40.31393 77.09279
30.422617 40.90742 69.11301
30.234373 40.95646 69.61602
30.294434 41.049248 70.88362
30.483255 41.940495 71.533905
30.025059 40.837418 75.38031
30.271675 40.861446 76.61034
30.415998 43.027138 69.34242
30.425825 43.048107 70.34387
30.251574 42.4956 72.64993
30.435177 42.619873 74.695145
30.291172 43.80821 69.02034
30.161116 43.837845 69.4599
30.16057 43.779037 70.064445
30.427116 43.04286 71.90235
30.247257 43.106728 72.09467
30.265257 43.54714 73.54829
30.245962 43.592617 74.53916
30.35468 43.314575 75.05725
30.308853 44.394413 69.02911
30.212711 44.516605 69.43125
30.23416 44.432785 70.20055
30.40539 43.906055 72.674545
30.38162 44.44694 73.70147
30.292572 44.383263 74.44578
30.355993 44.61451 74.93959
30.336252 44.967373 69.488686
30.402584 44.93146 70.480804
31.127155 38.281696 69.879616
30.88899 38.12666 70.77993
30.758755 38.142906 71.447556
30.931202 38.207623 72.327614
30.888332 38.27308 74.86233
30.537241 38.06135 75.71465
30.513792 38.000145 76.47263
30.643637 38.08932 77.09088
31.038118 38.95497 68.87789
30.844015 38.85734 69.53435
30.493814 38.401257 70.67716
30.462917 38.365685 71.633125
30.557978 38.50526 72.27128
30.386963 38.78465 75.02156
30.44249 38.63687 77.35707
30.822535 38.687286 77.64372
31.188778 39.57641 68.31278
30.666033 39.736538 68.87283
30.492367 39.565163 77.56809
30.651455 39.403492 77.69262
31.141136 40.273975 68.22442
30.588182 40.435818 68.778755
30.649857 40.67279 72.296814
30.755497 40.548573 73.53478
30.539585 40.479786 77.34983
31.009592 40.199917 77.84868
30.600262 41.37788 69.1428
30.597496 41.2891 70.49149
30.833385 41.00801 74.154366
30.626698 41.44428 75.352135
30.67944 41.254528 76.60302
30.768553 40.913296 77.21949
30.73741 43.181007 68.957825
30.522703 42.255455 71.69902
30.52591 42.316853 74.48449
30.67248 42.843193 75.66449
31.219902 43.506172 68.248085
30.667145 43.62388 68.687065
30.573864 43.527607 71.49789
30.95154 44.343212 68.32512
30.530405 44.463398 68.7152
30.568787 44.083294 70.71906
30.753834 44.722687 72.97617
30.613789 44.654205 75.333954
31.051975 44.6324 75.91234
31.11624 45.034344 68.348595
30.75726 45.1975 68.82867
30.610687 45.468555 69.41832
30.678917 45.512165 70.2551
31.02845 45.414364 72.77659
30.649126 45.46328 73.47135
30.672384 45.703938 74.512375
30.813976 45.57412 75.38081
31.038319 45.378746 75.86531
31.021677 45.902733 68.99738
31.106384 46.248093 69.545876
30.981705 46.111965 70.20245
31.14227 46.031498 73.00504
30.910088 45.989685 73.7557
30.927242 46.108482 74.4777
31.046164 45.97464 75.479744
31.128439 45.91739 75.750206
31.934767 37.200596 75.87197
31.92049 37.045666 76.418686
32.067764 37.15179 77.27202
31.630405 38.10686 69.704956
31.548183 37.83971 70.58897
31.580496 37.671143 71.261795
31.437634 37.949177 72.33727
31.78525 38.161163 73.48261
32.159046 37.517773 74.158905
31.416538 37.51619 75.601265
31.53867 37.64265 77.30632
31.55049 38.041847 77.727715
31.503355 38.934067 68.29741
31.390219 38.950645 77.92833
31.850727 39.66505 67.787926
32.074574 40.468163 67.677666
31.195253 40.484093 77.79716
31.903812 41.32605 67.98891
31.569712 41.268036 77.36859
31.2439 40.92241 77.6771
32.06532 42.948532 68.06169
31.732405 42.16373 68.52764
31.979763 43.362717 68.110725
31.299452 44.630463 68.148735
31.611843 45.127922 68.1178
31.329231 45.623566 68.49593
31.66281 45.427967 76.235725
31.874712 46.05439 68.28411
31.409534 45.924965 68.66857
31.636139 46.257557 72.88879
31.435818 46.54096 73.589935
31.451279 46.590435 74.37531
31.553286 46.45182 75.436485
31.59859 46.091743 75.9388
31.757994 46.87843 69.11852
31.61923 46.82704 69.66705
31.937675 46.754143 70.81005
32.032032 46.904713 73.06139
31.696487 46.79425 74.49394
31.591145 46.638382 75.11717
33.35559 33.80817 67.10689
33.24989 33.936386 67.56619
33.269676 34.009686 68.0555
33.15921 34.777924 66.86334
33.060577 34.475765 67.61828
33.265617 34.572197 68.33857
33.031586 35.64442 66.75375
32.915558 35.184013 67.35707
33.115513 35.480198 68.11926
32.996506 36.53192 66.5129
33.127586 36.67709 67.97955
32.645153 37.414776 71.46793
33.014957 37.254642 72.71436
32.73077 36.8825 75.64027
32.568325 36.756275 76.605225
32.560368 36.931473 77.293335
33.16625 37.54212 66.7666
33.082092 37.18177 67.95892
32.944775 37.734207 69.09124
32.2996 37.615097 77.926186
32.2607 38.58178 78.13584
32.60434 39.371 67.244156
33.46419 40.716377 63.683895
33.232265 40.682747 66.15312
32.957565 40.386963 66.69576
32.566883 40.31369 78.073135
33.474586 41.13723 64.41198
33.23083 41.175686 65.731514
32.504963 41.29678 67.690605
32.275013 41.437103 77.21634
33.297176 42.773262 66.40804
32.364 41.958015 76.59892
32.42561 42.16871 76.793236
33.175575 43.785538 66.94691
32.76062 44.544666 67.19588
32.51086 45.354942 67.86556
32.302563 45.74818 76.39178
32.544174 45.509487 76.5947
32.768497 46.475956 67.99392
32.673233 46.353863 76.27882
33.382076 47.588863 66.925995
33.08263 47.256023 67.55546
32.56529 47.1915 68.54071
32.466553 47.39559 74.574326
32.545387 47.127518 75.40687
32.97931 46.743713 76.18789
33.391045 48.218307 66.88756
33.18872 48.40976 67.57509
32.98983 48.50877 68.60516
32.86084 48.379715 69.150536
33.237915 48.467705 70.54788
33.24812 48.15573 72.59431
33.28816 48.955162 68.06646
33.29581 49.059143 68.671074
33.207188 48.956024 69.20164
33.299454 48.94018 70.51738
33.993217 33.142197 67.63802
34.077785 33.181602 68.24342
34.164833 34.005447 66.341255
33.774883 33.629272 66.97746
33.55708 33.573532 67.5476
33.642517 33.67424 68.31432
33.91326 33.870003 68.829765
33.775826 34.759964 66.16362
33.564095 34.52121 66.45905
33.817562 34.500435 68.99703
33.71284 35.601784 65.9208
33.851532 35.6538 68.7753
33.576767 36.666763 65.84031
33.588593 36.56417 68.65588
33.658615 36.268803 69.22319
33.706314 37.008698 71.00506
33.7151 37.02611 72.33778
33.959076 36.86094 73.15759
33.856483 36.9874 73.996475
33.267357 36.895073 75.20759
33.491776 36.68003 76.369865
33.516796 36.64016 77.11838
33.195427 37.03185 77.78628
33.7643 37.640095 65.52788
33.36671 37.592155 78.14228
34.316288 38.96308 61.768597
34.210064 38.73616 62.273582
34.187798 38.73132 63.030296
33.98604 38.12983 65.180435
33.623886 38.427616 65.763145
33.746227 38.84786 78.56242
34.237385 39.419945 61.750942
33.889282 39.772495 62.34152
33.69722 39.603886 63.46067
34.029724 40.726093 62.14801
33.704247 40.393894 62.59401
33.538445 40.36787 63.54958
33.98971 40.213844 79.24495
34.120495 40.94969 62.194748
33.797855 41.117092 62.76903
33.654545 41.344093 63.70565
33.54377 41.536358 64.81484
33.601593 40.988087 78.42687
34.17965 41.486355 79.395226
34.235657 41.866825 62.90856
33.899834 42.336033 63.689438
33.699585 42.684563 64.375435
33.83448 42.31059 77.99792
34.307632 42.481705 79.14167
34.197533 43.27879 63.889736
33.932327 43.261192 64.26958
33.711433 42.94547 65.07356
34.437897 42.908802 79.37334
33.666016 44.551968 66.491516
34.15284 45.31883 65.93426
33.963974 45.909252 66.40589
34.124348 46.45878 77.12562
33.882164 47.861916 66.033424
33.633736 47.556904 66.61543
33.727005 47.189762 76.27588
34.013412 48.384335 65.94959
33.624157 48.379852 66.5066
33.647327 48.17799 74.18212
33.93636 47.831352 75.44471
34.035896 48.87218 66.06136
33.95157 49.165462 66.61455
33.708984 49.335182 67.61474
33.63702 49.4349 68.76605
33.59926 49.43195 69.445816
33.71755 49.46681 70.39427
33.62944 49.142 71.612915
33.90388 49.198055 72.07176
33.97986 48.796947 73.15354
34.13236 49.630672 67.602
33.968643 49.69364 68.32328
34.03732 49.738155 69.63282
34.10715 49.800682 70.45427
34.067776 49.67476 71.18326
35.0771 32.3173 67.76723
35.115593 32.312138 68.45819
34.87722 32.966255 66.879684
34.519184 32.809696 67.543144
34.730198 32.754868 68.55422
35.109646 32.882607 69.07452
34.694477 33.848648 66.220375
34.74062 33.339012 66.51241
34.455944 33.30497 68.66344
34.675842 33.52889 69.08415
35.27401 33.9302 69.896515
34.787025 35.027393 65.61088
34.341557 35.775356 65.50065
34.57877 35.27616 69.3042
35.10857 36.23884 70.520294
35.295425 35.899303 78.3279
35.331417 35.958294 79.18432
34.283165 36.354412 65.316956
34.25592 36.357113 65.451515
34.179943 36.85907 70.54139
34.31479 37.157158 71.31028
34.227913 36.717915 73.48266
34.417305 36.95199 74.76417
34.57576 37.010796 75.233215
35.12872 36.73408 78.42516
35.181187 36.21195 79.12853
34.862602 38.050354 61.6281
34.745384 38.019684 62.329296
34.717434 38.053394 78.6915
34.93621 38.64057 61.050705
34.56182 38.33848 61.66337
34.1767 38.24471 78.341446
34.69131 38.801544 78.90668
34.810818 39.315712 61.07626
34.529842 39.350174 61.35106
34.375153 39.502235 79.256546
34.964283 39.65722 79.83279
34.846584 40.26178 61.31717
34.47163 40.286537 61.597122
34.981216 40.175617 80.216576
34.831287 41.31419 61.87217
34.501747 41.68659 62.365837
35.151478 41.451786 80.51763
34.57821 42.29213 62.721462
34.72057 42.295517 80.06498
34.911404 43.108646 63.0223
34.620922 43.369358 63.481525
34.786182 43.61776 79.31637
35.014614 43.32496 79.98264
34.78912 43.9933 63.858105
34.56199 44.087337 64.49317
34.792343 44.436047 78.61515
34.96321 44.293594 79.00979
34.868664 45.0826 64.90466
34.38075 45.368916 65.39704
34.57161 45.420124 77.901215
34.63496 46.64726 65.72743
34.390297 46.07033 77.41006
34.90446 46.281265 77.8511
34.661907 47.642273 65.59776
34.43806 47.522488 76.179665
34.94973 47.406143 77.03166
[...]
POINT_DATA 8197
SCALARS features_00 float 1
LOOKUP_TABLE default
0.65553236 0.50336224 0.492036 0.4725865 0.6667681 0.695558 0.6767365 0.41294357 0.4366799 0.47364604 0.46643358 0.4510053 0.6596931 0.70536613 0.69676995 0.36221004 0.3682322 0.3719055 0.2773882 0.36779678 0.5059351 0.6169007 0.63261974 0.3208631 0.30958182 0.25012606 0.09178418 0.36925393 0.55997986 0.35159764 0.21815974 0.08167794 0.17726348 0.4761821 0.46256393 0.38331822 0.07028851 0.077332415 0.2379044 0.30596936 0.29634887 0.5073842 0.5087715 0.43309513 0.18202738 0.35143256 0.40224034 0.45123315 0.51290864 0.41529644 0.45708838 0.4748152 0.46049795 0.4034627 0.42994407 0.5901128 0.62552416 0.6181115 0.43077117 0.4687953 0.49762678 0.4766618 0.44593948 0.56233644 0.64931774 0.61787236 0.3750447 0.40987974 0.64908874 0.63679516 0.326279 0.35716558 0.16832861 0.043870337 0.580612 0.5383352 0.2695838 0.22396219 0.057155356 0.2480906 0.47702682 0.5078496 0.3820564 0.06874404 0.12641928 0.22993596 0.35262316 0.43832877 0.108407356 0.43824816 0.49229437 0.29827887 0.29590043 0.46713644 0.45240113 0.42207342 0.47518253 0.49066025 0.44737655 0.31232548 0.4076229 0.48294514 0.49805212 0.4830308 0.42345393 0.40908343 0.40505314 0.36308694 0.4362437 0.4758348 0.48752445 0.48003727 0.4427508 0.5060284 0.53074765 0.3713264 0.40447253 0.37527958 0.3217502 0.14031762 0.17168848 0.45388204 0.5599464 0.5449612 0.36323166 0.5590332 0.25856984 0.16593802 0.48098505 0.14635748 0.36034727 0.43106467 0.14174552 0.16452889 0.21531135 0.38959846 0.3388592 0.3850581 0.4308716 0.2740914 0.3675161 0.32720488 0.4089895 0.451638 0.45983118 0.44804946 0.27013683 0.30263233 0.17999965 0.3019956 0.44001627 0.45971936 0.62371266 0.6228796 0.5946427 0.6051891 0.6129833 0.54570895 0.5553359 0.59559834 0.500746 0.45203164 0.37629902 0.13595575 0.064462505 0.33400577 0.46896648 0.5066109 0.32001698 0.30061266 -0.0139237195 0.47798496 0.42183447 0.0608742 0.35518304 -0.071205206 -0.05435902 0.26328504 0.23010877 -0.0071435496 0.036212664 0.2131469 -0.046517383 0.14997205 0.0767196 -0.00396996 0.09875436 0.17238443 0.37283808 0.31437844 0.11802766 0.32197088 0.30116856 0.19829887 0.18727687 0.33761853 0.35182825 0.26772723 0.40014702 0.36434317 0.28289104 0.24427494 0.24694821 0.17799714 0.359128 0.31254512 0.2797909 0.27056536 0.6246656 0.586869 0.5528768 0.6175951 0.6249133 0.57473207 0.48753536 0.5280148 0.5740059 0.42357293 0.46659 0.34779608 0.38749927 0.26078662 0.15916494 -0.08600914 -0.03535588 -0.06010659 0.0079933675 0.21291554 0.3566578 0.41324556 0.44011867 0.25595674 0.32990798 0.5709798 0.55210364 0.46796146 0.10572389 0.07637272 0.09302958 0.54348433 0.4936923 0.3873002 0.45946214 0.4548465 0.37952152 0.1973298 0.44672656 0.4133951 0.33977756 0.17432138 0.13337484 0.28764427 0.37698743 0.32842237 0.26944643 0.08752704 0.2388658 0.29940456 0.26946208 0.1855743 0.2375113 -0.0047623077 -0.019941747 0.037111655 0.101693876 0.373933 0.31259653 0.14894782 0.44315222 0.43551102 0.1396063 0.119629264 0.48378325 0.48201066 0.420654 0.32334623 0.2982034 0.29192692 0.26597103 0.2453251 0.16948117 0.42665458 0.3595335 0.30586737 0.30161256 0.2895372 0.65650415 0.6211957 0.59969306 0.6347171 0.56913495 0.48281336 0.51818526 0.5652199 0.5177531 0.4235893 0.26911816 0.42163113 0.41573542 0.21217299 -0.27140957 0.4923656 0.5161905 0.38265178 0.39092836 -0.23552679 -0.14786237 -0.092540056 0.0009386875 0.036996584 0.36891958 0.49007046 0.6545584 0.61710715 -0.06581346 0.6370061 0.6221107 0.028325811 -0.017940473 0.580289 0.5662173 0.09280157 0.09441561 0.50780463 0.5014251 0.18659128 0.42904878 0.4008602 0.3437276 0.36742562 0.3077203 0.33973137 0.31689975 0.20437048 0.2505134 0.27448395 0.2228416 0.11047509 0.13761081 0.0559308 -0.020737372 0.045193795 0.17721204 0.0754128 0.06205304 0.3427505 0.08216427 0.06261043 0.45435497 0.4441864 0.06633292 0.07403968 0.49894983 0.5138042 0.49596334 0.20236936 0.1280365 0.08729109 0.5300988 0.4861737 0.37954524 0.3330328 0.3126144 0.30337536 0.27514338 0.24126524 0.62958276 0.6794101 0.6697994 0.5857775 0.57847536 0.47174662 0.47734517 0.28022194 0.21207528 0.34731996 0.102686256 0.11685507 0.5241501 0.546268 0.5530167 0.3233518 -0.073429905 -0.0841455 -0.09838691 0.4918713 0.5273571 0.52416563 0.5303686 0.7554885 -0.2050122 -0.1330019 0.47435522 0.4842432 0.761078 0.7495317 0.71871966 0.6889658 0.3258372 0.71884704 0.6562821 0.072868556 0.6515286 0.5944278 0.084485196 0.5128225 0.20078635 0.41981894 0.31581277 0.34032202 0.29618347 0.30677384 0.31841806 0.24343434 0.2553193 0.26061141 0.27563784 0.20078732 0.07651451 0.089450106 0.11150498 0.053824402 0.07328575 0.37586063 0.3042796 0.020905197 0.03976237 0.47914973 0.033379525 0.025291204 0.015369162 0.5471882 0.060989883 0.028887331 0.02462954 0.58074236 0.5665931 0.48088336 0.31916213 0.20890486 0.2572707 0.2805848 0.23136683 0.1668647 0.6122228 0.67826486 0.6785594 0.5873635 0.5577928 0.29054242 0.4666772 0.18629816 -0.009505359 -0.027016245 0.2563374 0.47350037 0.5417639 0.5573683 0.109573156 -0.02902883 -0.050015524 -0.088321716 -0.1415129 0.22294068 0.53829396 0.8148734 0.8122817 0.08029331 0.44423312 0.4193433 0.8123104 0.8149239 0.71992654 0.7441 0.32815433 0.74662924 0.24645847 0.5889901 0.5673541 0.19810356 0.4822801 0.2676052 0.3930894 0.3355754 0.2924019 0.27081427 0.2989919 0.2435469 0.25131556 0.23217002 0.058136303 0.10102843 0.14645372 0.19456086 0.13311426 0.36244345 0.03313241 0.49263602 0.4765995 -0.007981077 0.06602283 0.19141507 0.5370977 0.5592222 0.06885004 0.057994388 0.022140764 -0.009023555 0.56928 0.56405497 0.33766997 0.32584292 0.17740045 0.10501799 0.20132113 0.02867261 0.100011714 0.07666971 0.06124767 0.22929588 0.16157126 0.1345644 0.58943963 0.65758246 0.72126985 0.67790985 0.59174436 0.7059878 0.75282484 0.6812875 0.5344839 0.6368656 0.6725471 0.70521647 0.40672934 0.52352417 0.5867454 0.6095874 0.33115733 0.35212114 0.4210876 0.6382518 0.6765413 0.5785972 0.457825 0.4596469 0.14930522 0.08374368 0.027959382 0.016176442 -0.0471389 -0.04081427 -0.1094882 -0.14694676 -0.01997467 0.07001972 -0.17202708 0.5302439 0.8448694 0.8504472 0.8514974 0.35596436 0.31424975 0.8261515 0.7496815 0.6992246 0.267248 0.2775079 0.7475801 0.6675535 0.5701033 0.20410901 0.45668915 0.25067782 0.37257457 0.3594507 0.23319435 0.27022633 0.15217564 0.20135725 0.17039105 0.036927022 0.12240505 -0.17251024 0.06012433 -0.16280685 0.17907178 0.17198849 0.21014316 0.3420194 0.20252745 0.22300473 0.43828177 0.22209066 0.22968796 0.24002588 0.49175376 0.4491278 0.074078724 0.098198056 0.24823564 0.2489528 0.2545995 0.5290786 0.5500573 0.2235538 0.09862525 0.08297191 0.037717298 0.047832772 0.11436789 0.1024721 0.020717993 0.32695124 0.10814061 0.1227716 0.6493583 0.5214782 0.58804595 0.52485627 0.46241575 0.34074473 0.47106695 0.5882114 0.5171766 0.54064924 0.35641328 0.6047325 0.56929034 0.5767826 0.24483617 0.33159694 0.35622445 0.54162705 0.580376 0.58649635 0.2661736 0.25064957 0.2629084 0.29864174 0.3518172 0.24289182 0.21686117 0.21891057 0.22727849 0.2489266 0.1846537 0.26807418 0.31498072 0.39400095 0.75713456 0.7717936 0.7687081 0.7508139 0.64308846 0.72419477 0.71906114 0.711063 0.54770124 0.5711752 0.62689054 0.64285004 0.39804286 0.40218377 0.43651795 0.4160965 0.36577383 0.3845805 0.3893347 0.071201235 0.42489147 0.008557387 -0.00326515 -0.046261348 0.31999844 0.03959045 0.04834625 -0.055920362 -0.06374311 -0.052884877 -0.049903754 -0.05844109 -0.0765632 0.08383445 -0.048079 0.269865 0.85727566 0.850068 0.8095182 -0.1417611 -0.040183827 0.81789243 0.8435632 0.83573043 0.69177693 0.26459193 0.26090318 0.7725114 0.70872843 -0.09319061 0.66122305 0.6065612 0.1921106 0.46867877 0.15902719 0.37041676 0.33993122 0.09834634 0.056840938 0.0755284 -0.24410985 0.120173864 0.18350331 0.12386088 0.23336212 0.19874676 0.23296922 0.16667555 0.23746778 0.18327862 0.21491444 0.47116536 0.45565277 0.41194037 0.27094752 0.15456115 0.022346504 -0.2504245 -0.12264714 0.027283493 -0.0221406 0.15877542 0.20737623 0.29621965 0.47985208 0.48312348 0.45868418 0.024700679 -0.0007858388 -0.14701134 0.02071983 0.11595431 0.15174955 0.36394304 0.44543642 0.46405995 0.4644638 0.43534732 0.41428077 -0.06509737 0.14227757 0.22360122 0.24160756 0.42145658 0.36819053 0.39403102 0.3809551 0.35953993 0.38747793 0.398382 0.41450423 0.122909226 0.20791619 0.22150719 0.09506868 0.36084184 0.550252 0.52315956 0.522374 0.49187663 0.19770506 0.22058684 0.23621279 0.030259097 0.5695451 0.62714916 0.55927217 0.5616777 0.5588204 0.59241045 0.21172088 0.19552335 0.14380188 0.19054201 0.38012496 0.57908034 0.5818951 0.5829272 0.58802044 0.58944386 0.597237 0.61620855 0.16476884 0.24740335 0.13327557 0.47165203 0.5915108 0.59498525 0.6080477 0.222276 0.25631756 0.23428348 0.22969423 0.08455194 0.24795786 0.21906099 0.17722598 0.16177325 0.24016489 0.18270347 0.12688892 0.23175193 0.34163636 0.39698362 0.37261426 0.30361798 0.35841343 0.40496293 0.40556976 0.30963975 0.35827637 0.39519674 0.41683027 0.3184852 0.32977962 0.7628101 0.7852437 0.79068196 0.78935206 0.75783664 0.78505653 0.7843532 0.77092856 0.78019273 0.63804805 0.65011656 0.72131777 0.76146966 0.76930857 0.39178047 0.4904192 0.5525295 0.68357813 0.36515352 0.4862993 0.39779595 0.1696982 0.26664 0.38356796 0.42016053 0.22584502 0.13845666 -0.10416145 -0.038416922 -0.017165251 0.066161364 0.30639255 0.353981 -0.102989145 -0.094498254 -0.15233386 -0.05821036 0.09778774 0.008588601 0.206173 0.79391396 0.8287916 0.23508738 0.68961793 0.44423988 0.42071688 0.15872605 0.17784123 0.4061427 0.40092888 0.09375873 0.36702192 0.031798802 0.103332646 0.012814745 0.16738757 0.18204811 0.56008035 0.62894857 0.7355162 0.77486074 0.07880959 0.19714949 0.18893284 0.5880135 0.66325897 0.69896114 0.7569157 0.16435257 0.21362905 0.63492906 0.6450628 0.22180599 0.18693915 0.55841565 0.15392996 0.1866554 0.19017929 0.41821522 0.31884518 0.08675571 -0.09094526 0.19777691 0.3836179 0.46193942 0.46121424 0.4263578 0.3131048 0.33854786 0.16681737 -0.16775464 -0.22355485 -0.10224163 0.18214083 0.36422604 0.42756957 0.35208133 0.27653873 0.29401952 0.37336484 0.417304 0.062635005 -0.3076157 -0.02026008 -0.44947615 0.30965835 0.18726593 0.77291256 0.16805542 0.31635612 0.4108712 0.42334032 0.4311216 0.14784682 0.08662255 0.0117877275 0.19679865 -0.19638208 0.27565485 0.16619962 0.36742502 0.8126712 0.8491621 0.8711971 0.814789 0.78485966 0.17217426 0.10736176 0.36354655 0.34567332 0.373273 0.42836976 0.445319 0.19464123 0.18180262 0.047917683 -0.20905828 -0.06298788 0.18155625 0.3826064 0.6199576 0.6584884 0.8067471 0.8502341 0.8638849 0.8352711 0.7931397 0.37689036 0.42625862 0.38792336 0.4056788 0.42766625 0.1681945 0.08595859 0.0729761 0.10210091 0.15247807 -0.11086793 -0.104946434 0.0110049695 0.6669211 0.6882775 0.7741043 0.77780676 0.77265203 0.82336056 0.80576265 0.4554037 0.5200648 0.48375416 0.4525834 0.42386734 0.4229423 0.40136886 0.109479725 0.03389617 0.03477437 0.1282934 0.10042238 0.0029898882 0.644265 0.6660964 0.6515922 0.6463835 0.70355844 0.5772528 0.5933275 0.50879335 0.47274232 0.44942188 0.43028945 0.4037357 0.05992133 0.0081596635 0.11738627 0.4616411 0.5544788 0.5957589 0.5812125 0.5932726 0.5917515 0.58194405 0.6156508 0.50124174 0.47719705 0.26460627 0.23691596 0.11567183 0.17628916 -0.046380773 0.32868198 0.29398215 0.13979784 0.17816988 0.22079708 0.16194615 0.18873823 0.3142162 0.20247844 0.31379968 0.23248771 0.26811385 0.36285186 0.20551604 0.24408934 0.25727552 0.24091904 0.23483966 0.38239154 0.2930853 0.322213 0.2542792 0.24553777 0.3330033 0.39593333 0.3337636 0.35445333 0.34737092 0.39670187 0.4433989 0.46878916 0.37291342 0.43985617 0.4876153 0.5109986 0.7266056 0.7488978 0.78377867 0.79963505 0.64039767 0.69354105 0.7951069 0.8108556 0.8198678 0.6141069 0.79288965 0.4021005 0.72749615 0.46105933 0.49396843 0.4619186 0.37523764 0.2592447 0.28574246 0.5561564 0.63050044 0.4243203 0.42912593 0.44790897 0.3998198 0.31563926 0.11784968 0.13009451 0.12369719 0.15691115 -0.07241716 0.44138312 0.19884312 0.04335259 -0.24264151 -0.17848301 -0.05667169 -0.039970152 -0.1010101 0.31368947 0.40620768 0.30714077 -0.21200849 0.20541729 0.12377471 0.03947697 0.010612626 -0.020502679 0.021293717 0.008872464 -0.13611114 0.040527117 0.17041649 0.11248599 0.25365493 0.31015587 0.025126299 0.1648891 0.16423112 0.4846434 0.57441074 0.72869897 0.7827996 0.79861283 -0.0038560405 0.19319318 0.42218974 0.51195335 0.6345178 0.7950685 0.8008232 0.0700591 0.19536664 0.53254104 0.7577833 0.77938753 0.1562986 0.1311813 0.17263886 0.39596185 0.5305166 0.5931922 0.66980124 0.1802068 0.15368333 0.30689812 0.5064883 0.46963692 0.50230205 0.21586564 0.06017207 0.3150678 0.31609786 0.30631316 0.41882652 0.3514275 0.26208562 0.17169052 0.29095683 0.31764692 0.082090124 -0.07035971 -0.4239018 0.12638332 0.28596845 0.14267126 0.29926854 0.25464213 0.3113554 0.33711264 0.34717602 0.32606462 -0.38751704 0.018386059 0.14073229 0.4066769 0.6344548 0.54305387 0.076945685 -0.14874491 0.045661625 0.7162851 0.72156084 0.6967511 0.06325122 0.09745227 0.4177417 0.62701154 0.54700696 0.13235375 0.08356805 0.3004026 0.50937104 0.676259 0.7222888 0.75449663 0.37566617 0.26670888 0.24861053 0.009284146 0.42320013 0.32735068 0.18572806 0.18616623 0.51705503 0.6478964 0.7040118 0.758984 0.74045706 0.71999705 0.3919645 0.36177373 0.28217304 0.5542477 0.6112047 0.21697763 0.21725632 0.17300546 0.69147754 0.6577845 0.70594543 0.7337986 0.4325576 0.38871396 0.42216438 0.46240234 0.48678398 0.48208618 0.17384881 0.13022234 0.060302794 0.6376578 0.64184 0.5838729 0.60134506 0.62680364 0.66820186 0.54458654 0.51803684 0.51028764 0.39649415 0.09046002 0.0845109 0.1916585 0.15711176 0.062431794 0.516172 0.5639471 0.5386837 0.53886366 0.533417 0.47710067 0.36355066 0.4845674 0.50874645 0.49168408 0.46844572 0.42306745 0.22785744 0.27997115 0.27436915 0.2251133 0.1045054 -0.054277457 0.08355966 0.34076926 0.42164987 0.49484396 0.27589226 0.30888802 0.3653486 0.34389323 0.30540025 0.24886745 0.09131614 0.11975694 0.02918759 0.28896865 0.33447438 0.36213654 0.3453784 0.3024645 0.17956929 0.18380016 0.18135998 0.15280473 0.14424801 0.651193 0.6375685 0.58445203 0.19808744 0.21544483 0.28368202 0.6618176 0.64052916 0.60068 0.20967323 0.39710373 0.4436885 0.66004455 0.6388765 0.59202826 0.29689384 0.2630049 0.41752404 0.4486068 0.3763345 0.33547658 0.41523367 0.41053557 0.4381343 0.4248888 0.3910759 0.46711063 0.4098339 0.39053822 0.45069468 0.49533337 0.53032094 0.50185686 0.45349988 0.5035125 0.54119945 0.5411968 0.64641523 0.67995834 0.7457154 0.79267156 0.620131 0.6329542 0.77402306 0.8047519 0.8203534 0.5548019 0.80196923 0.5089848 0.48704803 0.2932314 0.7562428 0.43136024 0.46366656 0.50805676 0.4952515 0.44616163 0.25378042 0.27617645 0.28466564 0.2551546 -0.014141796 0.6204497 0.37707773 0.41283798 0.15933305 -0.011758501 0.07879409 0.1905886 0.47331643 0.4921245 0.36365816 -0.17145514 0.016092913 0.019518942 0.26861513 0.10087238 0.15273045 0.16680364 -0.06271473 0.095128424 0.020289615 0.0398262 0.055522688 0.026715722 0.15517697 0.06477703 0.13317814 0.14395322 0.009698838 -0.06610291 0.115318865 0.67232794 0.66958594 0.6364126 -0.06072527 -0.002850663 0.09408923 0.14131288 0.6579755 0.64590096 -0.058772616 0.16525395 0.6049658 0.57314384 0.5311459 0.6854868 0.7395624 0.7772018 0.16178343 -0.027997926 0.1771446 0.50410664 0.3980205 0.3654766 0.781615 0.21440709 0.010681719 0.17771514 0.74615943 0.08463295 0.15542893 0.24055117 0.6257857 0.69944555 0.055075858 0.05119383 0.20542143 0.2503123 0.44174963 0.10578753 0.18000655 -0.18428354 0.16487648 0.32291722 0.2146618 0.26450318 0.35394564 0.3495488 0.047586083 0.29925966 0.49139994 0.5777472 -0.28297567 0.17086555 0.26499623 0.14167422 0.13863131 0.07554289 0.63193476 -0.3159063 0.51696277 0.56806767 0.5297209 0.652614 0.038054265 0.17060895 0.13725874 0.29814935 0.27642667 0.13542071 0.09476507 0.024465907 0.6632544 0.63455874 0.3006999 0.025506213 0.23412946 0.42590982 0.5863217 0.66970456 0.4132076 0.1763802 0.56556344 0.6584916 0.6138645 0.6167964 0.52932715 0.08135652 0.14136633 0.5327523 0.60954005 0.5924979 0.52404606 0.66615605 0.7204363 0.14265871 0.65063506 0.5857137 0.59121853 0.45895812 0.5174286 0.60801506 0.7003449 0.11091997 0.5516216 0.52644235 0.50592583 0.5915115 0.5148846 0.46720374 0.4801442 0.5083298 0.5982801 0.6753393 0.10944161 0.36385506 0.44854027 0.513815 0.5090586 0.4540515 0.44009942 0.3595499 0.2794155 0.48438632 0.49896562 0.23545387 0.57168245 0.13207282 -0.039620347 0.3304158 0.3389113 0.25979507 0.4564197 0.39940506 0.32366794 0.3901344 0.19323821 0.106115624 -0.23722738 -0.07549989 0.6015294 0.58770514 0.3761036 0.26464826 0.30678105 0.27170125 0.1972566 -0.06185583 0.16093437 -0.13193354 -0.026498228 0.26454103 0.65219736 0.6364935 0.2201931 0.2159162 0.17189392 0.2177954 0.22718915 0.21870029 0.3725176 0.44697392 0.6710645 0.6736131 0.5327287 0.48289406 0.5026244 0.68514085 0.66518044 0.59774494 0.50845 0.46262544 0.615449 0.4591408 0.44878626 0.40305305 0.41119152 0.5177348 0.3857696 0.36542302 0.5421818 0.49615547 0.4324397 0.45285976 0.4086475 0.48038864 0.42497715 0.3880353 0.42882562 0.49634743 0.56528133 0.55038667 0.5143291 0.5017521 0.53497875 0.5953412 0.6686345 0.7332244 0.47756866 0.48053843 0.7186248 0.7617094 0.4817521 0.46336395 0.2861145 0.2989975 0.3242243 0.3490973 0.34651646 0.60462034 0.6274183 0.41660845 0.446559 0.40867418 0.18969259 0.2348169 0.25747305 0.2706384 0.3789449 0.40211138 0.20911749 -0.056378946 0.41934475 0.34208828 0.48807007 0.6685574 0.15142515 0.4755652 0.6111021 0.682432 0.06855078 0.41620547 0.56793654 0.64264715 0.0097745955 0.07872361 0.050345868 0.050701447 0.124436945 0.14514732 0.088522784 -0.06497686 -0.12859844 0.029458102 0.67594945 0.64906645 -0.17268135 0.089511275 0.69342065 0.6844799 0.66320074 0.6032476 0.44711286 -0.13742667 0.13081813 0.6737163 0.66771984 0.40402892 0.33337232 0.40827066 0.23973435 0.116221994 0.61427546 0.6016617 0.61026084 0.50821555 0.46610868 0.25261313 0.08382593 0.13995047 0.057253152 0.5346489 0.4848013 0.696515 0.5481726 0.50328743 0.34782496 0.12208224 0.37350443 0.25046492 0.56923246 0.47780186 0.45692465 0.32715952 0.55169314 0.5194417 0.36403927 -0.05226609 0.17455812 0.23682009 0.43750352 0.4687951 0.4550373 0.36892655 0.20220666 0.1541766 0.19988199 0.3301661 0.34797353 0.081358284 -0.15825593 0.13448605 0.38158363 0.41795343 0.42308128 0.27074444 -0.06000823 0.060369253 0.25001255 -0.015992533 -0.07137227 0.20671107 0.046737716 0.25970203 0.10938407 0.29224208 0.4491629 0.18771265 -0.018605389 -0.0015545413 -0.06551032 -0.056616228 -0.071701445 0.38868642 0.3116811 -0.19196217 -0.027189419 0.24590868 0.4453008 0.52855164 0.06917132 -0.10988243 0.05629386 0.012867829 0.050909907 -0.06300983 0.50358087 0.5024448 -0.26911893 0.027123898 0.23292993 0.32222396 0.27288088 0.3620149 0.2478634 0.5659492 0.66718864 0.5740289 0.5961541 0.38652337 0.40719137 0.724502 0.738539 0.55814797 0.5606929 0.5437192 0.5039331 0.4874689 0.39845896 0.7705553 0.4975142 0.4629355 0.097172886 0.4248855 0.30484235 0.3665811 0.7417312 0.3539241 0.4486586 0.46379584 0.34396097 0.36841553 0.19366641 0.18029907 0.6997244 -0.048216112 -0.007826373 0.2324089 0.4344642 0.35691574 0.28895587 0.2172851 0.15638058 0.12325455 0.41573018 0.51918834 0.65795004 -0.07989617 0.06746651 0.17853469 0.42205444 0.34832293 0.22235066 0.05588493 0.17254007 0.22750688 0.38120154 0.38910335 -0.17396642 0.4039885 -0.10793519 0.067061044 0.087597765 0.23945734 0.3938073 0.6478813 0.64724016 0.6081044 0.09056989 0.09127183 -0.010749429 0.10913332 0.18297997 0.47945943 0.6606511 0.67325485 0.67818546 0.16659711 0.103522494 0.2591834 0.30288333 0.2852627 0.29855627 0.101856805 0.53743887 0.71933186 0.7127094 0.37148046 0.24712238 0.20628381 0.27425784 0.3279909 0.43652886 0.4692806 0.5222626 0.7480535 0.70011795 0.582695 0.41107294 0.46013707 0.4223342 0.5010566 0.7085961 0.6531526 0.542215 0.37308013 0.3830477 0.55736375 0.49940354 0.4737614 0.41822976 0.48156032 0.42697114 0.36825183 0.3844409