# vtk DataFile Version 2.0
Really cool data
ASCII
DATASET POLYDATA
POINTS 5821 float
-23.535934 38.316566 14.294747
-23.52085 40.00261 13.307833
-23.524088 40.28896 13.064228
-23.577051 40.538296 13.41146
-23.638155 40.622177 14.596389
-23.681013 41.596794 13.985465
-23.81746 41.6808 14.703963
-23.781109 41.631382 15.1952915
-23.621965 42.173225 14.072383
-23.772268 42.32835 14.6989565
-23.735918 42.334545 15.311365
-23.650524 42.76084 14.89682
-23.667753 42.745815 15.039203
-22.574265 31.796661 12.000497
-22.622414 31.984562 12.5052805
-22.611729 32.459843 11.854322
-22.710402 32.570328 12.297464
-22.590244 32.64846 13.009658
-22.706055 33.471 11.827806
-22.714825 33.49377 12.50767
-22.632824 33.470245 13.201066
-22.624401 34.45452 11.562961
-22.681679 34.602325 12.394891
-22.589931 35.055492 11.705139
-22.60778 35.531773 12.34551
-22.844486 36.881905 13.663338
-23.158287 36.969173 14.526293
-22.884016 36.70262 15.385078
-22.586798 36.86492 16.315697
-22.746151 37.917637 12.936676
-23.207838 37.400845 13.824741
-23.409506 37.601414 14.53528
-23.20063 37.47083 15.369219
-22.689388 37.57077 16.196558
-22.731812 39.03907 11.010561
-22.819626 38.801994 11.647345
-22.677847 38.4417 12.327111
-23.345978 38.564537 13.488972
-23.481256 38.81819 14.389076
-23.270002 38.39869 15.250282
-22.908524 38.297688 15.838847
-22.708414 39.93994 10.222542
-22.792532 39.583076 10.637653
-23.067759 39.520546 11.446913
-23.36918 39.723175 12.6852455
-23.454975 39.832977 13.172733
-23.363194 39.596756 14.693522
-22.994576 39.652256 15.114823
-22.869287 40.31477 10.731376
-23.085968 40.590916 12.048894
-23.326729 40.691093 12.900288
-23.482965 40.599247 13.209044
-23.519535 40.483467 14.599929
-23.448423 40.95411 15.35316
-22.629917 41.024326 10.649194
-22.767223 41.256615 11.666334
-23.175354 41.202496 12.738039
-23.486992 41.26389 13.412496
-23.443638 41.301823 15.669877
-23.232637 41.739014 16.03605
-23.324125 42.48329 13.844067
-23.279367 42.341557 15.991039
-22.705963 42.742435 13.071996
-22.9054 43.017876 13.682143
-23.302729 43.04885 14.69432
-23.327484 42.97959 15.344965
-23.075254 42.89916 15.860442
-21.85929 31.203287 11.319871
-22.064905 31.073183 11.882813
-22.073015 30.96951 12.438008
-22.015121 31.085176 13.080897
-21.97251 31.5299 11.233922
-22.340525 31.55676 11.750603
-22.438072 31.503273 12.398309
-22.19804 31.483267 13.254868
-21.895668 31.824133 13.973013
-22.18632 32.583363 11.091342
-22.486391 32.43244 11.524646
-22.48889 32.67942 13.309103
-21.96063 32.701004 14.367582
-22.109968 33.756554 10.862962
-22.46844 33.46996 11.341391
-22.471838 33.21784 13.454525
-22.13457 33.534122 14.270594
-21.793966 33.360485 14.810349
-22.139402 34.475597 10.766794
-22.529179 34.489452 11.266109
-22.44954 34.77373 13.387342
-22.001863 34.66772 14.492949
-21.735193 34.26784 15.333187
-22.130732 34.984856 10.816057
-22.402868 35.275326 11.522766
-22.374727 35.83904 15.354619
-22.114317 35.842308 16.376156
-21.819748 35.971924 17.06154
-21.831856 36.43587 11.711502
-22.205338 36.512905 12.383264
-22.404684 36.517494 16.407305
-21.952816 36.643204 17.141546
-22.500456 37.326626 12.832106
-22.5167 37.342926 16.434341
-22.131424 37.555965 16.832943
-21.957918 38.716805 10.057912
-22.1592 38.55371 10.461853
-21.998034 38.447735 16.536043
-21.803995 38.16109 16.745607
-22.439875 39.75657 9.996287
-22.454876 39.21328 10.304102
-22.255272 40.797935 9.719324
-22.639349 40.43552 15.638543
-21.754742 42.146526 7.064942
-21.896015 41.75966 7.597542
-22.108385 41.579227 8.525906
-22.078934 41.34199 9.731269
-22.376669 41.570312 11.252371
-22.617075 41.693184 16.46957
-21.8942 42.638287 7.0510616
-22.200623 42.636246 7.528862
-22.331888 42.527405 8.56778
-22.330257 42.894623 9.829167
-22.04831 42.689087 10.179538
-22.429424 41.937927 11.68064
-22.19737 42.473972 16.775608
-21.921417 43.197994 7.0953174
-22.188177 43.297035 7.6079025
-22.364477 43.480877 8.457941
-22.3931 43.481556 9.4075365
-22.19643 43.61287 9.9803095
-22.153923 42.776608 12.063944
-22.013042 43.249195 12.532345
-22.357347 43.197742 13.545967
-22.531502 43.43709 15.580148
-22.400764 42.980515 16.355907
-22.00865 44.061405 7.871745
-22.168198 44.358204 8.644558
-22.206974 44.503986 9.27948
-22.03081 44.337826 10.132892
-22.347967 43.591022 15.444219
-21.880314 44.886 8.718518
-21.893253 45.009647 9.411681
-21.751318 44.89543 10.068353
-21.404053 31.196629 11.233635
-21.54332 30.783583 11.800855
-21.52137 30.64961 12.621409
-21.50827 30.737068 13.034595
-21.200933 31.195456 14.06086
-21.564167 31.651108 10.976285
-21.404621 31.741123 14.475671
-20.804245 32.733814 10.055347
-21.285421 32.739956 10.508694
-21.31923 33.782482 10.266398
-21.595222 33.652546 10.432993
-21.390938 33.580364 15.461253
-20.79887 33.61034 15.981385
-21.022764 34.27218 10.240033
-21.407305 34.346523 15.576181
-21.248487 34.76532 16.318193
-21.387411 35.314312 16.985712
-20.753805 35.119728 9.707086
-21.413235 35.889503 17.325733
-21.629978 36.570374 17.4177
-21.210669 36.440483 17.595118
-21.114775 37.731796 9.714264
-21.518293 37.47187 17.367655
-20.864557 38.70033 8.724361
-21.369928 38.414715 9.613944
-21.695591 39.03243 16.342573
-20.78706 40.62756 7.136914
-21.218096 40.683426 7.663377
-21.517551 40.32118 8.5412
-21.335545 41.855362 6.8893723
-20.558323 41.683178 18.828884
-21.307482 42.546104 6.7025895
-21.641895 42.11773 17.053513
-20.676582 42.211967 19.168264
-21.406973 43.336544 6.8748903
-21.441679 43.45026 13.590843
-21.08967 43.451855 16.696125
-21.343355 42.89209 17.003038
-21.472004 43.853474 7.1620913
-21.349672 44.41955 7.687828
-21.440876 44.36381 11.005973
-20.812534 44.186962 12.30925
-21.793297 43.60863 13.597104
-21.188486 43.85093 14.571743
-21.82697 43.86706 15.121844
-21.012222 45.038975 8.173842
-21.480156 45.194466 8.747304
-21.367641 45.3302 9.432419
-21.326208 45.17516 10.127849
-20.545908 31.309654 10.756215
-20.97155 30.582531 12.276843
-20.333378 30.850302 13.324069
-20.829412 30.976183 13.857549
-20.22249 31.250208 14.86798
-19.80825 31.429295 9.827304
-20.303852 31.486507 10.606895
-20.561646 31.65735 15.154372
-19.553253 32.39451 8.409756
-19.904263 32.55072 9.223202
-20.097181 32.83566 16.058214
-19.648436 33.277767 7.9768243
-20.065935 33.830063 8.585895
-20.654737 33.71508 16.032017
-19.941122 34.88479 8.125856
-20.085386 34.609604 8.429309
-20.505865 34.335445 16.280327
-20.48309 35.109856 17.024946
-19.685625 35.685863 8.065207
-20.086933 35.812023 8.448591
-20.539513 35.707947 17.320007
-19.90406 36.786324 8.047168
-20.438925 36.597725 17.641884
-19.790583 37.588436 7.9712324
-20.511074 37.445507 17.66394
-20.242317 38.433987 8.410622
-20.296196 40.139572 7.2327976
-20.36718 40.758846 6.820402
-20.19629 40.704563 18.689157
-19.993612 40.85047 19.436903
-19.88807 41.201546 20.32519
-20.667458 41.33765 6.7622046
-20.426987 41.768295 19.857557
-20.164288 41.649624 20.307371
-19.759167 41.991127 21.348484
-20.774801 42.326656 6.5613685
-20.35988 42.507957 20.563454
-20.037415 42.58593 21.222065
-19.652922 42.88778 21.799204
-20.646612 43.419636 6.8196993
-20.458712 43.3443 19.937717
-20.344507 43.34695 20.424335
-20.010302 43.32967 21.197397
-20.862448 43.969982 7.182953
-20.41631 44.31584 7.619193
-20.604614 43.9395 13.134409
-19.998945 43.920547 19.8668
-20.064394 43.871944 20.381107
-19.755636 43.734898 21.350945
-20.45972 45.44153 9.509757
-20.618795 45.321262 10.165114
-20.44492 45.07707 11.404637
-19.684189 45.01477 13.796488
-20.46947 44.84956 15.318761
-20.241941 45.427433 16.871216
-20.207664 45.561558 17.768328
-20.115978 45.516663 17.976313
-19.902822 45.799732 15.136296
-20.007341 46.335987 16.366606
-20.00352 46.52528 17.799534
-19.841969 46.44583 18.20175
-19.718307 47.210735 17.569183
-19.570885 47.39808 18.109444
-18.78553 31.240236 8.018859
-18.978088 31.19601 8.504612
-19.175055 31.098026 9.308925
-19.54279 30.86348 10.5855
-19.204288 30.864555 11.263065
-19.646107 31.039867 12.037753
-19.477486 30.837795 13.563815
-19.040327 30.887423 15.529438
-18.6779 30.36471 16.248484
-19.023441 31.72491 7.688634
-19.35238 31.589697 8.567078
-18.935642 32.410336 7.1933455
-19.359362 32.53099 7.6733494
-18.745255 32.68067 16.472176
-18.95994 33.505863 7.1975174
-19.198372 33.569805 7.5316305
-18.89562 34.738007 6.923605
-19.528683 34.92047 7.6181345
-19.730637 34.587875 16.631357
-18.811605 35.25411 6.8665743
-19.245937 35.343243 7.376786
-18.752901 36.10607 6.81132
-19.433228 36.551983 7.6247005
-19.399624 38.063152 17.535727
-19.277483 38.39694 17.818422
-19.236149 39.860493 6.9152575
-19.320677 39.731007 18.669096
-19.24708 39.667557 18.952795
-19.702194 40.629894 6.813213
-19.361887 40.61818 20.373072
-18.891844 40.566025 20.816994
-19.573675 41.525497 6.581774
-19.488958 42.13716 21.666458
-19.022608 41.75196 22.037077
-19.628248 42.358276 21.647007
-19.151537 42.60716 22.243507
-18.727821 42.669006 22.762135
-19.620392 43.30337 7.005249
-19.161734 43.35206 22.101406
-18.717457 43.142822 22.733572
-19.69178 44.111774 20.580154
-19.304346 43.943024 21.171618
-18.757801 43.760853 22.280653
-19.529377 44.94221 8.645467
-19.303377 45.176895 9.345469
-19.289316 45.48912 13.072437
-19.404612 45.411858 13.810601
-19.417248 44.785572 19.423027
-19.23623 45.74135 13.33102
-19.092342 46.441082 14.636332
-19.393797 46.671154 18.448187
-19.189344 46.26955 18.952133
-18.94294 47.600048 15.68856
-19.562536 47.35776 16.479107
-19.358232 47.417717 18.458939
-19.012535 47.358856 18.91896
-18.664171 47.95846 15.098504
-18.61284 48.800873 15.657627
-18.968336 48.413624 16.310936
-19.32431 48.27966 17.703417
-19.15743 48.332386 18.17303
-18.826715 48.188297 18.788515
-18.643589 49.029438 15.617276
-18.880583 48.903576 16.868341
-18.906216 48.909763 17.481699
-18.927677 48.860943 17.950607
-18.08336 30.23257 10.337416
-18.083256 29.75957 15.592153
-18.070951 29.816885 16.372536
-17.990715 30.037642 16.928303
-18.213045 31.093647 7.7422113
-17.926598 30.7491 8.457183
-18.629759 30.612232 11.574702
-18.451744 30.402355 16.684692
-18.13082 30.532503 17.076998
[...]
POINT_DATA 5821
SCALARS features_00 float 1
LOOKUP_TABLE default
0.33504677 0.26603422 0.26178592 0.29033047 0.37083364 0.43373656 0.52337253 0.5621253 0.49371386 0.5845635 0.6356666 0.622887 0.6358171 0.6000624 0.5903114 0.5438997 0.5397632 0.51975995 0.46104482 0.45932603 0.4320697 0.38163853 0.36297485 0.32804662 0.23769419 0.1988629 0.37960765 0.39234298 0.41081563 0.16097273 0.28112087 0.3748029 0.39933622 0.39924824 0.2508883 0.22230929 0.1707938 0.27701145 0.31415117 0.35335034 0.3597472 0.24958944 0.25913733 0.2691188 0.24161783 0.25845557 0.2931083 0.29628724 0.265552 0.27071333 0.2635898 0.27940026 0.35318193 0.47497362 0.21632904 0.26129267 0.26843852 0.3300969 0.5442567 0.599594 0.47576433 0.6430105 0.35378903 0.44651234 0.58485293 0.6490575 0.6497166 0.55970013 0.62045026 0.64959407 0.64433074 0.5463516 0.60271597 0.6263465 0.617149 0.54022634 0.48429668 0.53139395 0.502113 0.40702626 0.3935611 0.44372886 0.43642953 0.332621 0.29312897 0.3480941 0.37417817 0.31744263 0.22496472 0.2087351 0.3096388 0.3001029 0.30940512 0.36910462 0.4044853 0.09006627 0.066754684 0.40869695 0.4337734 0.060543895 0.41222 0.4187702 0.19458961 0.20322448 0.372064 0.39244935 0.23135397 0.23099543 0.21411762 0.34931752 0.56014514 0.50548816 0.3731172 0.18888089 0.19044861 0.539765 0.6219485 0.613748 0.4818855 0.32519224 0.21556509 0.19921891 0.52747583 0.66385925 0.6667617 0.6120677 0.5004165 0.4557354 0.17497294 0.18203396 0.3562441 0.59117913 0.57611525 0.6883271 0.6500024 0.60306144 0.52241164 0.54970413 0.65656084 0.60969645 0.5525205 0.5100007 0.5814862 0.6345763 0.6319295 0.52840054 0.47971505 0.46870244 0.23832764 0.35362923 0.28292254 0.33554405 0.21878576 0.17785391 0.22480716 0.20605804 0.2466673 0.33939397 0.06925064 0.40081626 0.435058 0.4222654 0.09780542 0.42521572 0.059959903 0.15237153 0.31666607 0.31733656 0.35603827 0.2348874 0.49726155 0.30639327 0.5723156 0.39695495 0.3863283 0.64532316 0.18903756 0.38891318 0.41178602 0.670633 0.67802435 0.360191 -0.06078524 0.23688792 0.16041845 0.3812675 0.64542186 0.64081347 0.5856322 0.5274923 0.36569378 0.5574196 0.48466104 0.51811934 0.29740968 0.23094447 0.317816 0.30148688 0.34469083 0.22644864 0.15830079 0.2632134 0.13797632 0.16907218 0.105130434 0.097495474 0.18678614 0.28730682 0.07593431 0.045625903 0.35132197 0.02170407 0.3605206 0.011867698 0.34390652 0.009323634 0.2029844 0.2892698 0.26667866 0.29838958 0.39104626 0.37332797 0.41090727 0.42766526 0.49416927 0.4911927 0.5069889 0.51605284 0.5353434 0.5927348 0.4876843 0.50803816 0.52030766 0.638544 0.6164044 -0.10429608 0.3892527 0.45427126 0.5074089 0.4554382 0.4290403 0.23556969 -0.04085613 -0.032435067 0.26475906 0.2579224 0.23250617 0.049736537 0.25901878 0.34754944 0.33085197 0.40433645 0.42915273 0.39220577 0.3464444 0.23672912 0.22610645 0.21792606 0.3225252 0.3280642 0.3448064 0.5146911 0.4248891 0.35525438 0.40502208 0.38057014 0.09071062 0.26636454 0.25166747 0.1619549 0.12756826 0.14577171 0.14152056 0.11589602 0.113758825 0.05583698 -0.015458681 -0.13098517 0.028777272 0.10460834 0.135142 0.18353267 0.3307323 0.36074224 0.20486286 0.5175703 0.53293693 0.5233933 0.5667869 0.6279142 0.3886479 0.5511105 0.6231464 0.4396925 0.47954264 0.56673145 0.3335955 0.15371065 -0.019565605 0.011014782 0.20729315 0.029102214 0.06805833 0.3666944 0.29656 0.2884871 0.36225492 0.44077227 0.4534245 0.3094903 0.44645435 0.4393841 0.48359507 0.4960933 0.50113165 0.46211684 0.4963705 0.51284266 0.5182867 0.12783244 0.5164391 0.5805239 0.5978373 0.37883955 0.2716966 0.12402245 0.5531758 0.5650432 0.43655756 0.4211913 0.46136004 0.39757773 0.17405745 0.311681 0.3621494 0.14477043 0.48287684 0.13678749 0.13143423 0.45946693 0.5131981 0.11921954 0.12692519 0.36673564 0.026015438 -0.06421882 -0.0071129277 0.10323768 0.11783133 0.05674303 0.24887685 0.04605868 0.4146187 0.545907 -0.14759012 -0.08753465 0.58235526 0.68292904 -0.18227108 0.6973882 0.58524436 0.6990393 -0.03008765 0.5962415 0.66827196 0.2786259 -0.016170401 -0.009985039 -0.0040804446 -0.0032429527 0.31037194 0.32029712 0.3301094 0.3675719 -0.062253635 0.08214022 0.4321854 0.6803037 0.6727964 0.6667316 0.35989362 0.37373143 0.30526823 0.48258537 0.47234064 0.73303485 0.7422435 0.70484805 0.40764818 0.5185045 0.515568 0.7486557 0.6787779 0.4764802 0.4916662 0.525872 0.53031206 0.53096193 0.51968384 0.5149283 0.53112215 0.53806067 0.53968394 0.5547025 0.47783786 0.49155864 0.45678967 0.45268887 0.3107893 0.36146712 0.3811275 0.30604282 0.325534 0.37169516 0.53753006 0.5735913 0.12199569 0.12734449 0.11325782 0.4196185 0.5173385 0.5919093 0.59859043 0.57456005 0.4115144 0.39404744 0.31514657 0.5651833 0.5345253 0.50099534 0.4783589 0.4456668 0.39466804 0.47967765 0.5303034 0.5390354 0.47613472 0.3567828 0.15333676 0.37743866 0.38192287 0.54704833 0.14916542 0.21238002 0.40754002 0.45045605 0.06255378 0.5365166 0.5683247 0.5336558 -0.020946838 0.017642822 0.0639447 0.09583236 0.30198556 0.40956968 0.050316494 0.44730702 0.5098992 -0.08420456 0.70659614 -0.21296658 0.7289182 0.73006773 -0.20547894 -0.18984812 0.7310084 0.7338642 0.3104737 0.26242876 -0.053201642 -0.072503895 0.33709162 0.602689 0.6943078 0.35273552 0.33805257 0.29701197 0.07696068 0.17565677 -0.06788497 -0.11980748 0.32156515 0.45683193 0.49622756 0.23561296 0.3105088 -0.08385976 -0.06927565 -0.048717514 0.6233185 0.6445867 0.3018843 0.3294754 0.35708424 0.3380867 0.28348884 0.427395 0.6337032 0.7054615 0.580241 0.23418158 0.32068658 0.3411999 0.35015672 0.45451874 0.73412395 0.73463476 0.6485984 0.48751992 0.31456566 0.26547983 0.49875447 0.5038032 0.46414047 0.65592635 0.5889932 0.54732263 0.5581403 0.5569682 0.5349376 0.80974746 0.7556975 0.6318896 0.52723074 0.796661 0.7853807 0.73592067 0.61159676 0.5282381 0.53827626 0.52678585 0.7375147 0.6720221 0.65187585 0.6041478 0.5000998 0.5086856 0.50624543 0.5535879 0.50196284 0.46890682 0.42398363 0.4534608 0.42708176 0.36022234 0.3945763 0.39512008 0.3840874 0.36516523 0.29873055 0.33833438 0.36256462 0.26659614 0.34612378 0.33555937 0.29556793 0.26503882 0.20798871 0.15791261 0.24517274 0.32696146 0.4561497 0.5555606 0.2993658 0.268808 0.23256284 0.19370224 0.038603984 0.10663427 0.5715173 0.5744306 0.55810666 0.23500448 0.34431016 0.31321886 0.37509483 0.26542827 0.1245028 0.53718704 0.50570923 0.3571673 0.43694648 0.39057618 0.3528741 0.213041 0.3946874 0.47298187 0.5098661 0.43566644 0.38390964 0.28517604 -0.034162566 0.49761263 0.48086083 0.5408045 0.5526525 0.50293297 0.39370686 0.29131573 -0.16227815 0.53878576 0.56327236 0.49879733 0.36777917 -0.15064731 0.5807962 -0.14407782 0.589244 -0.14272673 0.4632302 -0.09356744 0.13956109 0.0024919696 0.27076933 0.39354688 0.41291973 0.403282 0.33582318 -0.08298114 0.35438457 0.464476 0.48282623 0.53099406 0.48093614 0.3560155 -0.08534329 0.5598546 0.63973343 0.55320734 0.58600265 0.51380956 0.4350857 -0.08775857 0.6453086 0.59571135 0.6170612 0.6081904 0.4968542 -0.14101619 -0.21087134 -0.21842366 0.65858126 0.7126589 0.61474764 0.62358165 0.2217877 -0.15678921 -0.16062367 0.68060744 0.4104625 0.3441077 0.268172 0.15027991 -0.10790211 0.6662504 0.37065387 0.35532057 0.4416284 -0.08017571 -0.06984166 -0.21235168 0.29535407 0.559637 -0.06841572 0.03467636 0.2527597 0.62482154 0.6671554 0.28314283 0.28682125 0.63078356 0.67161596 0.23996553 0.23640616 0.24880075 0.40314788 0.4386679 0.6238382 0.6201657 0.52069974 0.45152676 0.35176128 0.26539123 0.24077567 0.29720157 0.49792784 0.54652226 0.54531914 0.4858839 0.46247274 0.42739 0.38944143 0.56477654 0.5724908 0.5598912 0.7832948 0.7076469 0.5307896 0.82347256 0.81317896 0.6524432 0.5814743 0.44135386 0.79495627 0.44540626 0.33514723 0.60144764 0.626076 0.42289212 0.4712422 0.33378336 0.36370394 0.098397665 0.29485545 0.21057868 0.11061666 0.21633574 0.21272096 0.14491257 0.2566804 0.30494663 0.32399848 0.18303913 0.32312274 0.19173172 0.1845447 0.13230194 0.034603678 0.09894 -0.026944935 0.29543328 0.28596666 0.040055513 0.12668622 0.17885509 0.1391364 -0.06665419 0.012585811 0.25867635 0.48847085 0.04428475 0.12222539 0.02645227 -0.012930099 0.46120745 0.2537461 0.17874299 0.032452308 0.10122171 -0.0020630807 0.24665695 0.41300637 0.12621634 -0.049297012 0.4724242 0.40260804 0.17837048 -0.0756045 -0.16631976 -0.15632881 0.5165725 0.53795403 0.3623181 0.31985417 0.17690301 -0.17977242 0.52942455 0.37708604 0.40249795 0.03059642 -0.00405713 -0.17511553 -0.18764488 0.44904435 0.36642563 0.39191216 0.41173443 0.14841849 0.13973466 0.106203154 -0.08140999 0.36850724 0.33133754 0.3598185 0.31799597 0.22282252 0.15206258 0.15893197 0.1228223 -0.013992626 0.24720298 0.18187407 0.117034875 0.080606915 -0.030381534 0.26001945 0.30195463 0.31809253 0.19454305 -0.09117319 -0.1376658 0.49390507 0.42072675 0.28320244 0.27079102 -0.14726946 -0.10258578 -0.096293606 0.48919886 0.53973365 0.38450456 0.32326004 0.07966889 -0.10306481 0.44729733 0.5204534 0.5653578 0.59293854 0.44387013 0.29147014 0.25894803 0.18870354 0.06467498 0.032472815 0.5721397 0.5986494 0.6143397 0.63116467 0.6406192 0.4159953 0.12949204 0.37691993 0.5078498 0.6192578 0.6251192 0.6219158 0.4439999 0.40603185 0.41392583 0.54900134 0.40121728 0.4775915 0.54008895 0.44721448 -0.15843499 0.22953126 0.38961068 0.5224191 0.2941218 0.5610863 0.5635695 0.44241428 0.32357427 0.40879276 0.3780962 0.5046591 0.49877644 0.45028496 0.2968172 0.29469192 0.35280496 0.4270355 0.45580852 0.45919037 0.52892184 0.48156494 0.4637737 0.4261576 0.41772845 0.40043217 0.32956725 0.35910133 0.38121694 0.46001798 0.54904556 0.56448853 0.5118543 0.7688653 0.6679802 0.4234237 0.3690235 0.7940507 0.22805291 0.77736014 0.2847184 0.2663663 0.44682258 0.4488805 0.6847553 0.17376757 0.39257592 0.40746236 0.37984663 0.41608202 0.20080425 0.13399711 0.2091922 0.22270548 0.3426847 0.2958335 0.30735442 0.03768316 0.15854222 0.2017993 0.16263351 0.26269865 0.2246055 -0.06438161 -0.028814584 -0.026371002 0.063647866 0.21250245 0.033078615 0.23860165 0.26610643 0.07116905 -0.15662423 -0.037381783 0.23003466 0.008497309 -0.15769045 -0.27370554 0.08792846 0.2031728 0.15897124 -0.118117414 -0.34224737 -0.09982803 0.06261101 -0.045826696 0.13733028 0.038348682 -0.07369955 0.15247017 0.3530252 0.16558488 0.27939063 0.3835492 0.44672513 0.44678697 0.30048093 0.35919523 0.39833027 0.34977585 0.112324744 0.42721495 0.33529165 0.3549748 0.3422772 -0.07063831 -0.066202104 0.29730287 0.32742938 0.35477096 0.26360705 0.06295849 0.24313347 0.29997554 0.2843036 0.07740379 0.026028015 0.11139162 0.24994215 0.7114933 0.27076092 0.05508442 0.22092745 0.15558586 0.09457548 0.08697462 0.108257994 0.81886566 0.7605597 0.65987736 0.47657531 0.19295982 0.02068166 -0.086650364 -0.17690888 0.8272029 0.7711076 0.64288384 0.2515821 0.1441899 0.053611718 0.30457526 0.3512752 0.37597987 0.84190345 0.7929349 0.71002346 0.5415437 0.25841796 0.036379494 -0.043852314 -0.07243034 -0.12603626 0.26757577 0.32485044 0.7449151 0.4699678 0.14814988 0.030472975 0.18655051 0.28794003 0.6017399 0.60945755 0.2577678 0.29543275 0.6067431 0.5941595 0.49498343 0.4443728 0.38309163 0.59695446 0.37608945 0.587286 0.59829926 0.3583448 -0.1305199 -0.2863768 0.3959466 0.48477018 0.5292726 0.41767904 0.13062997 -0.27386037 0.24930781 0.4574889 0.42135215 0.42419827 0.36429676 0.31610903 0.42392036 0.38631943 0.495947 0.39021787 0.44649494 0.4240827 0.3977566 0.39030313 0.396049 0.3956817 0.41312706 0.45132455 0.50409883 0.53146726 0.4799376 0.45900527 0.45577157 0.5433217 0.69495666 0.6596041 0.41914752 0.2828685 0.46672896 0.47418943 0.45699757 0.7009115 0.12427758 0.42873108 0.47301814 0.48319328 0.45664114 0.68517125 0.059678473 0.105287 0.3952419 0.46957898 0.4733158 0.41450047 0.25374883 0.345639 0.37956917 0.6428016 0.12228455 0.313759 0.36891276 0.36377412 0.013570115 0.043715477 0.19427548 0.33851656 0.1917461 0.21145403 0.16435523 0.22225957 0.22240964 -0.053691193 -0.018686287 0.27729562 0.18366474 0.08458398 0.013273463 0.17904073 -0.21353462 0.14543597 0.15511072 0.2819996 0.14895341 -0.086570255 -0.09500723 -0.111406654 0.042559043 0.2652671 0.32314852 0.25288346 -0.055492606 -0.008793429 0.15546149 0.0102794 -0.0071043074 -0.10597617 0.08096373 0.07248269 -0.17735603 -0.23644349 0.15105295 0.24394406 0.19077463 0.20395014 0.2411528 0.2591151 0.19928409 -0.105639875 0.22772056 0.27930737 -0.2138738 0.23618972 0.25912124 0.02820425 -0.100477174 0.19882636 -0.41879967 -0.12514335 0.7528277 0.6360419 0.38681114 -0.17226753 -0.04951115 0.8609182 0.7743156 -0.26891693 -0.37470478 -0.0023431275 0.90257704 -0.2580735 -0.21611892 -0.042967968 0.89064264 0.8254063 -0.073570065 -0.18391532 0.856527 0.8101807 0.7632433 0.70391047 0.1362486 0.783165 0.7501428 0.6741004 0.4762429 0.39177752 0.51628727 0.3887732 0.359165 0.1193375 0.43221238 0.49179935 0.24698482 0.5653569 0.5871991 0.30017275 0.34622413 0.5486454 0.5987133 0.27951837 0.0021736547 0.16165157 0.1773409 0.36810565 0.39081806 0.30817357 0.299039 0.35637796 0.5728711 0.5090312 0.38383356 0.3894242 0.36481255 0.39232415 0.4514602 0.603237 0.6038674 0.62036264 0.6267717 0.4883541 0.5664919 0.6453303 0.6859101 0.6553248 0.47334963 0.3825996 0.37034175 0.34416026 0.58083063 0.5447776 0.2110301 0.25355744 0.04382293 0.3632278 0.43899733 0.44942564 0.42327082 0.56667733 -0.060791135 0.102232985 0.116934896 0.28187576 0.42079937 0.56751007 -0.29506674 0.20255184 0.108546436 0.32505178 0.38791606 0.40408814 0.39415053 -0.14852011 -0.03878232 0.3691446 0.35411608 0.22543456 0.27315277 0.3479437 0.074078634 0.35390824 0.34491545 -0.013156284 -0.105759904 0.27119017 -0.022399694 0.18104485 0.090169124 -0.026145978 -0.06201439 0.04964962 0.039126415 0.0060767364 0.092646845 0.16386998 0.13919967 -0.21972217 0.12939894 0.19738868 -0.36468157 0.11169682 0.8365164 0.7748332 0.5447029 0.2997337 -0.49679422 0.093336865 0.95884037 0.9939578 -0.49243683 0.0034903958 0.9317709 0.13482262 0.8471126 0.8141924 0.2339893 0.7901187 0.784317 0.74323297 0.66189396 0.27275863 0.14923939 0.33859193 0.32385564 0.10161785 0.16220902 0.3871359 0.45144138 0.26309603 0.26793605 0.43427455 0.50691545 0.2667261 0.2553262 0.17223933 0.39889303 0.47686142 0.1557937 0.15343894 0.06262343 0.18549043 0.0508551 -0.027824488 0.082657635 0.16595893 0.18820378 0.3103056 0.2761063 0.58516645 0.6072866 0.5875459 0.5855167 0.35252166 0.38512546 0.49543235 0.69620776 0.63564277 0.657707 0.65464145 0.55133235 0.6096219 0.7495703 0.77579814 0.72812486 0.6577158 0.6604867 0.5836427 0.5815598 0.5558989 0.5605579 0.55232704 0.49183986 0.39911428 0.5305221 0.64230996 0.64183104 0.61065304 0.42133385 0.36286658 0.460699 0.36606783 0.30419463 0.49324265 0.52367944 0.5752426 0.5397399 0.35564727 0.5345818 0.3222995 0.21915978 0.23152328 0.206168 0.2090341 0.36594316 0.389327 0.35053754 0.5195904 0.4794598 0.06984665 0.13119274 0.22372009 0.2811455 0.40323412 0.42532712 0.3549473 -0.2804179 -0.32814842 0.13417794 0.4321429 0.4170546 0.35823095 0.22718643 -0.15379193 0.3665567 0.341804 0.08771041 0.043777764 0.29628253 0.1511471 0.09677513 0.02358168 0.1240761 0.26101747 0.18591166 0.12182864 0.020387307 0.02092162 0.2791649 0.20222785 -0.007943872 0.27768603 0.1601016 -0.0010991168 0.0034806542 0.053047817 0.016887717 -0.05910258 0.029182583 0.12137729 0.048546202 0.31334037 0.09266722 0.7341926 0.4188116 0.3052631 0.08318419 0.86777264 0.7417085 0.0791249 0.9356543 0.0320144 0.87567925 0.7402806 0.779247 0.7543876 0.09231425 0.26545477 0.7664793 0.7664018 0.71473503 0.5966928 0.31585622 -0.0037906915 -0.0020113885 0.12102124 0.26212123 0.1982669 0.30869925 0.34920847 0.26370493 0.26980346 0.24662012 0.2514186 0.2998656 0.3756822 0.23968758 0.1409358 -0.057714146 0.033553544 0.19011919 -0.24722421 -0.13030815 -0.13958411 -0.249329 -0.0061679687 0.7009262 0.4913589 0.47268128 0.37955403 0.5197176 0.5701151 0.76237583 0.5705124 0.61352533 0.62135386 0.57029045 0.6193942 0.72727877 0.8144886 0.7744996 0.63075393 0.6426915 0.6395473 0.5917537 0.5954169 0.55521053 0.576405 0.67829823 0.6797117 0.6553618 0.5223393 0.5649791 0.37336987 0.3154833 0.53448534 0.64779645 0.6620317 0.63374156 0.38283485 0.18718842 0.14437768 0.26786053 0.56424105 0.2510596 0.26317385 0.14076903 0.16802272 0.29042196 0.41307804 0.056254387 0.16387075 0.30744213 0.36835462 0.41940713 0.32059434 0.43184662 0.4101443 -0.1293681 0.3070688 0.21419212 0.44008398 0.10364339 -0.16942984 -0.34636736 0.19983998 0.2592963 0.39369375 0.21905434 0.14593352 -0.20908444 0.31806594 0.28348362 0.2359443 0.17491445 0.2274772 0.18330552 0.18641776 0.17204829 0.12677877 0.0414129 0.23617204 -0.004368715 0.28736663 -0.022961032 0.2717765 0.2660485 -0.01929797 0.1845161 0.028028034 0.13045144 0.04777661 0.23701787 0.065394044 0.38533032 0.5765405 0.47810027 0.6015663 0.032275848 0.017260194 0.7387799 0.65189046 0.56010294 0.06151942 0.6845084 0.6667552 0.5575249 0.3727804 0.22629693 0.12050327 0.12616128 0.09921781 0.7177092 0.6050079 0.3949229 0.07028878 0.08212506 0.1877054 0.26451033 0.16589521 0.23015901 0.18484323 -0.043920144 0.27404195 0.28073794 0.2522712 0.23311207 0.1475828 0.07209027 0.19442683 0.2176955 -0.4265815 -0.07092878 0.02028871 0.04867564 -0.07430373 0.19199736 0.50769675 0.48805314 0.23118304 0.3126243 0.2393446 0.5011822 0.47324535 -0.10156128 0.38136744 0.5029342 0.28860438 0.4868045 0.45745173 0.4889692 0.60781443 0.67425144 0.7868707 0.39504388 0.551567 0.5829047 0.58054096 0.55130917 0.6257846 0.6687197 0.60834384 0.600234 0.60576487 0.5571554 0.39002782 0.5190627 0.66730344 0.66680753 0.6515596 0.48808765 0.56369865 0.37314683 0.11598266 0.00039370172 0.22875306 0.4681072 0.6041813 0.39808685 0.48141754 0.16599411 0.16473672 0.20970936 0.2993906 0.3365944 0.36151537 0.36990142 -0.19347373 0.3410585 -0.26836708 0.27521902 0.5067658 0.3216495 0.18671799 -0.30114716 -0.34584087 0.5374154 0.4781971 0.2715022 -0.16091806 0.009480772 0.049173944 0.41522056 0.15799814 0.32243446 0.23272842 0.1609486 0.64109 0.033172116 0.71152 0.5786586 0.357238 0.16020416 0.6225057 0.2519796 0.29769593 0.21605857 -0.009740486 0.044180885 0.23237787 0.20816544 0.14503354 0.11305242 0.009861782 0.20304438 0.16696464 0.34756342 0.40167603 0.27497444 -0.059626408 0.42105 0.315433 -0.01065592 0.4713021 0.4231655 0.38008797 -0.045080844 0.0038998649 0.34908408 0.15288743 0.1411557 0.13004617 -0.2418803 -0.2109432 -0.11936316 -0.2474637 -0.30521536 0.22535667 -0.34046954 0.2245669 0.27938214 0.6067034 -0.2419915 -0.25736678 0.3249545 0.6412575 0.6385126 0.47156328 -0.107001886 0.4215778 0.39162546 0.6711076 0.6621964 0.58201116 0.2513703 0.21092021 0.40425238 0.4580803 0.47295478 0.46051407 0.47522312 0.52022177 0.21885766 0.54751384 -0.021844976 -0.0695402 0.5948881 0.62451965 0.41277927 -0.16310357 0.16584155 0.49265295 0.5391543 0.36085075 0.03710728 0.0033408217 0.05164335 0.098607935 0.20347753 0.2704513 0.30768764 -0.11139531 -0.122541964 0.2996617 0.31700847 0.23678768 -0.14448604 0.18455869 0.5452645 0.51903296 0.41679308 -0.13763651 0.03902502 0.0050337613 0.54556364 -0.044514295 -0.06366019 0.5289365 -0.051863298 0.756829 0.7096194 0.5284626 0.014736101 0.8404168 0.79208624 0.67015827 0.52646136 0.3156371 -0.008311838 0.050987378 0.8525642 0.78507686 -0.14596607 0.22681387 0.84067893 0.7278731 -0.12085064 0.5322416 0.39444125 0.023850385 0.37268773 0.3027867 0.2623496 0.19499898 0.19858712 -0.12471551 0.27328026 -0.15447706 0.27674732 -0.08144043 0.102693915 0.08854952 -0.097392544 -0.17516461 0.27283108 0.17258444 -0.18183893 0.36154178 0.34331116 0.083401665 0.10346947 -0.08453843 -0.28824306 0.13029288 0.13057475 -0.23818338 -0.21303871 -0.2997385 -0.17718044 -0.22949828 -0.24417782 0.15309356 -0.28931722 0.24738656 0.2492634 0.5015645 0.30188864 0.6281942 -0.11060907 0.3728997 0.3715682 0.6926081 0.69101536 0.37855577 0.31535035 -0.004436329 0.07312599 0.41191593 0.72243744 0.73494554 0.6826219 0.5638386 0.4434768 0.14284047 0.30377296 0.40132293 0.5507276 0.42140833 0.4984175 0.52754796 0.45698822 0.37418652 0.3870595 0.33938 0.31841344 -8.421019e-06 0.16526213 0.21981338 0.058649622 0.14461656 0.44545323 -0.02609209 0