# vtk DataFile Version 2.0
Really cool data
ASCII
DATASET POLYDATA
POINTS 5801 float
-9.533711 51.008373 10.366156
-9.524718 51.262108 9.972388
-9.523047 51.3073 10.251835
-9.636908 55.52011 2.660231
-9.668439 55.78751 3.4573617
-9.703351 56.165123 3.7780626
-9.880847 56.74266 1.9905771
-10.164364 56.666676 2.5844004
-10.142883 56.801327 3.2345586
-9.887866 56.82504 3.8425071
-9.954896 57.406796 2.045286
-10.204727 57.374283 2.6751187
-10.148526 57.430874 3.2688003
-9.808308 57.536182 3.9262855
-9.830573 57.81953 2.1471765
-9.897483 58.050415 2.6974878
-9.83122 58.054966 3.4089231
-9.781097 57.90266 3.8356104
-8.881045 50.232536 9.523701
-8.958957 50.1742 10.454979
-8.817617 50.236725 10.998237
-8.861499 51.01779 7.8306494
-8.937216 50.730595 8.5036545
-9.338258 50.756496 9.719919
-9.323367 50.652893 10.469041
-9.094123 50.728794 11.138681
-8.806409 50.988434 11.653001
-8.676911 51.33623 7.326332
-9.017147 51.662403 7.8377376
-9.269013 51.56087 8.80114
-9.4307575 51.329556 9.618172
-9.460229 51.521824 10.553979
-9.18392 51.42559 11.20149
-8.790268 51.41166 11.650951
-8.970112 51.967407 7.830957
-8.993507 52.319096 8.482802
-9.127706 52.32548 9.428568
-9.148999 52.2013 10.380104
-8.970091 52.02887 11.183108
-8.738131 54.302822 2.0465255
-8.808853 54.266228 2.4156632
-8.744856 53.006916 9.038564
-8.739559 52.680172 10.454152
-8.990117 54.81319 1.8916326
-9.1944475 54.72925 2.523242
-9.304661 54.849674 3.0519242
-9.374366 55.661373 1.923676
-9.413755 55.73309 3.867476
-9.43179 56.65325 1.6349537
-9.361687 56.469086 4.323517
-9.514329 57.47902 1.7075027
-9.364219 57.662155 4.319145
-8.76732 57.549263 4.960152
-9.335466 58.203182 2.0773532
-9.552452 58.414185 2.5224366
-9.417875 58.467186 3.4156892
-9.226292 58.191418 4.0755367
-8.773102 58.03396 4.6876717
-8.8512 58.935345 2.234356
-9.04342 58.709686 3.2169216
-8.129153 50.323723 7.8703003
-8.287501 50.189606 8.631954
-8.445314 49.956985 9.705986
-8.432741 49.908516 10.560353
-8.2799835 50.060215 11.185543
-8.097364 50.28414 11.664048
-7.97187 51.110634 6.9782844
-8.435051 50.828568 7.536214
-8.641385 50.533348 11.510226
-8.208501 50.75175 11.870962
-8.401673 51.346603 7.167203
-8.241271 51.403526 11.993126
-7.7828193 53.359806 3.2332058
-8.362047 52.111225 7.11832
-8.56362 52.64816 8.230787
-8.265736 52.47237 11.533762
-8.061087 52.21892 11.922737
-8.44196 54.207455 2.0135736
-8.34779 53.8841 2.5028992
-8.489278 53.93251 3.1735535
-7.834176 53.637627 8.065174
-8.00343 53.524048 8.269113
-8.110967 53.62056 9.588391
-7.9538674 53.366234 10.407875
-8.178831 52.821938 11.358112
-7.962662 55.095768 1.403995
-8.526472 54.71013 1.6708417
-7.9325047 53.87861 8.784765
-7.9096737 53.695267 9.7823925
-8.498252 55.404423 1.3965361
-8.505723 55.334896 4.517105
-8.31056 56.540356 5.270051
-8.2254 57.582535 5.332552
-7.8701606 58.70809 -0.010503322
-8.212932 58.79718 0.43284512
-8.330858 58.466095 4.6606956
-8.255075 58.125683 5.0694027
-7.8564224 59.287037 0.026601255
-8.121401 59.475925 0.57575405
-8.265484 59.536922 1.1781894
-8.185287 59.55896 2.0595007
-8.086985 58.965973 3.8018456
-8.0599165 58.826874 4.423066
-8.005787 58.73168 4.8281493
-7.8825207 59.960567 0.71814364
-7.96628 60.12361 1.5831888
-7.884892 59.985806 2.2966893
-7.5505605 50.12176 8.028053
-7.19481 49.882298 8.80759
-7.3637624 49.646866 9.532157
-7.578792 49.701385 10.416478
-7.4451847 49.993202 11.367084
-7.086825 50.304417 11.85269
-7.336351 50.766987 7.004625
-7.465821 50.639732 12.031622
-7.575116 51.163734 12.085865
-7.4509687 53.205017 2.8303099
-7.186161 52.426453 12.37261
-6.8382034 52.315372 12.698772
-7.391115 54.05561 1.7510477
-7.59327 53.932632 4.6517096
-7.3042016 53.49322 4.816241
-7.492801 53.24822 7.0178843
-7.6342654 53.591743 7.9219584
-7.0496707 53.10712 12.171774
-7.7214184 54.947342 1.408644
-7.8128715 54.79353 1.4721265
-7.0960646 54.034336 7.6352773
-7.321778 54.069004 9.749014
-7.686453 53.78205 10.078881
-6.804766 53.896324 11.589081
-7.632667 55.20653 1.3529706
-6.93375 56.59296 6.212233
-7.4196434 57.59135 0.7102127
-7.1160607 57.111546 6.015747
-7.6047335 58.709038 -0.24807703
-7.3282843 58.57349 5.431344
-7.1524444 58.191452 5.7350287
-7.4977107 59.303898 -0.25101855
-7.549547 58.995876 4.7156987
-7.2004824 59.991085 0.033317596
-7.505251 60.2564 0.64919275
-7.561713 60.48077 1.2363765
-7.3251452 60.494312 2.1905625
-7.15297 59.93613 3.0293794
-7.17278 60.625786 0.97422683
-7.077076 60.75447 1.6269029
-7.136108 60.722828 1.9964292
-6.6266494 67.73242 9.955315
-6.6440444 67.743324 10.513664
-6.5989623 67.825096 10.943083
-6.6252875 68.40176 9.840774
-6.680272 68.29768 10.478725
-6.632747 68.03238 11.06599
-6.5612993 68.847 10.546821
-5.605566 49.08286 2.0845456
-5.680251 49.002678 2.650162
-5.6253757 48.886845 2.9644263
-5.8532844 49.34316 8.043759
-6.5239 49.451084 9.4004545
-5.7105904 49.740738 1.9512302
-5.8004518 49.38672 2.4496608
-6.0612 49.805363 7.1343904
-6.6418843 49.512363 8.832201
-6.5115447 49.974174 11.50691
-5.7872715 50.08519 1.9316274
-5.829866 49.972458 2.5092874
-5.5848317 50.18892 3.6882472
-5.939542 50.74725 6.375532
-6.2841597 50.725933 12.4005
-6.2998447 51.07613 12.649588
-5.6768217 51.40544 1.9505007
-5.58019 51.196686 3.10901
-5.7781086 51.953693 5.258154
-6.3963075 51.63561 12.786277
-5.879702 52.715004 1.7369164
-6.476882 53.03739 5.1512313
-6.356494 52.311024 12.758837
-5.70492 53.966145 -2.9543815
-5.673997 53.64319 -2.6434114
-6.518321 53.215023 12.451438
-5.703913 54.20998 -3.079791
-5.896158 54.215054 -2.3744042
-6.279362 54.52922 1.4611201
-6.2135806 54.473522 8.634829
-6.309905 54.593998 9.551372
-6.4738283 54.316086 10.513175
-6.5710897 54.00822 11.636098
-5.698184 55.82704 -3.3480563
-5.8126917 55.59959 -2.5950928
-5.774637 55.241493 -1.5208957
-5.99356 55.02457 8.172797
-5.712715 55.22929 9.090159
-5.743827 55.57935 10.792067
-5.7017336 55.475616 11.014182
-5.6784816 56.37668 -3.4073584
-5.6141334 56.322186 -2.5328684
-6.392196 56.883408 0.741215
-5.5770993 55.844353 11.093944
-6.771562 58.072685 -0.48087457
-6.6282315 57.159515 6.203614
-6.445872 58.597073 -0.75614667
-6.2820277 58.18476 5.8002353
-6.322069 59.304127 -0.6737559
-6.799969 59.524403 -0.4780557
-6.8717656 58.939766 5.2234697
-6.4195986 60.273594 -0.02252525
-6.0466075 60.58654 3.4368255
-6.550288 59.854042 3.9228334
-6.6852226 60.75352 0.748509
-6.2893105 61.087807 1.6301486
-5.900512 61.124817 2.6667483
-5.945273 60.806355 3.2750714
-5.8621516 67.056465 9.079459
-6.1567883 67.02348 9.550262
-6.1780663 66.94444 10.411963
-6.058515 67.068954 11.113704
-6.0406146 67.670044 8.951213
-6.3977213 67.581955 9.510388
-6.522368 67.433464 10.683706
-6.3064127 67.63911 11.293692
-5.938861 67.66754 11.726231
-6.0751243 68.48057 8.934823
-6.462507 68.48226 9.4449625
-6.410511 68.50647 11.223149
-5.977019 68.49057 11.886387
-5.952208 69.097916 9.064308
-6.195302 69.17754 9.531335
-6.244199 69.287544 10.449058
-6.091654 69.29526 11.103453
-5.6249495 69.62754 12.073263
-5.8162284 69.77968 10.109333
-5.662097 69.88053 11.569204
-5.054864 48.352768 2.5923274
-4.9208317 48.385162 3.332843
-5.241432 48.80011 1.894721
-5.2681446 48.558445 2.4605596
-5.343292 48.768158 3.2686841
-4.682969 48.756596 6.0646887
-4.8897414 48.751354 6.344782
-5.229038 49.116295 7.2125573
-5.3379946 49.358906 8.56286
-5.730539 49.3459 8.975915
-5.9732356 49.40048 10.1578865
-4.6692343 50.0004 -3.4064274
-4.701429 50.01918 -2.7277403
-4.9164586 49.88521 1.1354588
-5.365897 49.35055 1.5944499
-5.5290637 49.8557 3.7085576
-5.0112805 49.262344 3.945123
-5.6844754 49.513523 9.940258
-5.7754097 50.269382 12.046941
-4.6818056 50.452953 -3.8601556
-4.8127623 50.484814 -3.437596
-4.935885 50.67232 -2.5468981
-4.6208706 50.578262 -0.78674823
-5.432984 50.398376 1.3736818
-5.4124455 50.565876 3.483829
-5.4274993 50.655487 12.264405
-4.691904 51.174885 -3.9500635
-4.9388003 51.2456 -3.305845
-5.1035953 51.764603 -1.6755029
-5.694766 51.5839 12.883591
-4.7347693 52.46971 -3.382021
-5.0395355 52.11182 -2.0426404
-5.122264 52.48551 -1.5076392
-5.1900845 52.735676 -0.4344617
-5.0499263 52.24639 0.94284236
-5.6471844 52.354893 12.849905
-5.1014423 53.954937 -3.6524236
-5.3494854 53.477642 -3.1542468
-5.4564853 53.269295 -1.7675325
-5.329446 53.874863 0.6689932
-5.5571885 53.30297 12.473792
-4.9876246 54.88213 -4.1979914
-5.376282 54.40138 -3.5225813
-5.4569154 54.66209 -0.8359139
-5.489869 54.119717 12.218761
-4.810092 55.77167 -4.7481213
-5.150564 55.501823 -4.3009114
-5.514001 55.72155 -1.2595496
-5.3657274 55.2323 -0.23618469
-5.3458133 55.7943 11.714274
-4.808535 55.620895 12.295507
-4.8543463 56.2521 -4.724918
-5.2749906 56.53003 -4.1609516
-5.503751 56.622284 -3.6102405
-5.5187845 56.434246 7.9882884
-5.258376 56.490894 9.713662
-5.4098754 56.18533 10.772242
-5.257919 56.198196 11.354308
-5.043774 56.055676 11.898132
-5.013508 57.180176 -4.120784
-5.2008343 57.400772 -3.4858367
-5.0123863 57.446484 8.365568
-5.1281347 56.90599 9.836737
-4.910887 57.309875 10.341447
-4.806971 57.0284 11.075496
-4.8999147 57.78008 -3.464074
-4.9201303 57.72628 -2.5840151
-5.549008 58.22812 5.8115764
-4.7239375 57.799202 10.058053
-5.3940697 59.53968 -0.6942174
-5.3749924 60.364338 -0.13916406
-4.820478 60.53901 4.305637
-5.3621316 60.859257 0.29112983
-5.461192 61.047096 0.59332603
-5.5180287 61.45283 1.5129352
-5.496661 61.408283 2.4911268
-5.2660785 61.051563 3.479019
-5.1804743 60.811066 3.9005995
-5.038618 61.65056 1.7192191
-5.2133265 61.670887 2.2527199
-5.333812 66.368286 10.161754
-5.241015 66.998566 8.785338
-5.493367 66.49689 9.467292
-5.676494 66.58087 10.519692
-5.2009273 66.689316 11.290482
-5.1252694 67.697655 8.490451
-5.436043 67.48395 8.677057
-5.3815904 67.64651 12.034993
-5.5398526 68.60722 8.636847
-4.9723635 68.78195 13.055634
-5.458389 69.237305 8.88158
-5.6415873 69.58311 9.327452
-5.433487 69.55178 12.419224
-5.0017047 69.27246 13.096265
-5.282878 69.67252 9.170986
-5.2230163 69.976685 9.659097
-5.3314967 70.28085 10.56616
-5.1260757 70.601135 11.686563
-5.1705074 70.3712 12.32968
-4.75601 70.62098 12.975523
[...]
POINT_DATA 5801
SCALARS features_00 float 1
LOOKUP_TABLE default
0.7792973 0.75481224 0.7668967 0.7039294 0.7082051 0.6857526 0.7582256 0.7801744 0.74622595 0.6791748 0.71652883 0.7421557 0.71879816 0.6324697 0.66691023 0.6659043 0.6379032 0.610577 0.7157275 0.76046604 0.7492773 0.6461011 0.6770862 0.74634707 0.77950275 0.769855 0.738446 0.6306628 0.6661305 0.7043308 0.7329372 0.76610446 0.7707627 0.74005866 0.65427816 0.63857156 0.6518289 0.70394945 0.7407673 0.50930256 0.51451296 0.52233726 0.62309813 0.5379101 0.5691333 0.597666 0.64491487 0.6519828 0.66439974 0.60280204 0.6177056 0.5452741 0.44587225 0.55991876 0.5870799 0.5480441 0.50854385 0.44157374 0.4517609 0.4844588 0.5397914 0.58417535 0.6741093 0.7146278 0.6902251 0.6574415 0.551367 0.596979 0.7244996 0.6669096 0.60924274 0.6720556 0.40590423 0.6176592 0.56978303 0.6406325 0.63886243 0.487656 0.48599413 0.46156386 0.36952415 0.39782834 0.38115835 0.4228172 0.57951677 0.39089292 0.48707443 0.32904437 0.34685993 0.46700847 0.5243778 0.4545545 0.3902831 0.57321256 0.5433397 0.39316273 0.38637125 0.58892626 0.54839694 0.4908729 0.424924 0.3501341 0.3554601 0.35811985 0.5465615 0.47328618 0.40530592 0.42761642 0.3635502 0.439411 0.5899044 0.5875902 0.54108846 0.4414778 0.57722247 0.59665644 0.36272955 0.5326551 0.50899947 0.37076297 0.3397415 0.27259994 0.4062536 0.35366446 0.47394675 0.35893264 0.38821203 0.23355088 0.22769225 0.31408918 0.35677567 0.3122983 0.32029033 0.4353578 0.35925516 0.5797574 0.334714 0.34780973 0.5904088 0.30731365 0.5790415 0.5521727 0.5007691 0.4084434 0.30147332 0.5095428 0.4541547 0.42435187 0.80974966 0.75771046 0.7167581 0.8148885 0.751438 0.7016549 0.72483474 0.5798371 0.5746056 0.56292534 0.1399418 0.26809907 0.55152774 0.571984 0.17407642 0.24880028 0.47332135 0.5201742 0.5421791 0.50963455 0.102779545 0.4803573 0.49717525 0.32116842 0.41319546 -0.2578197 0.51158655 -0.1544517 0.054412596 0.47793108 0.31778866 0.28062302 0.43145227 0.35209945 0.35491353 0.056125283 0.09035469 0.06700416 0.14096904 0.3299067 0.5184688 0.46443295 0.3593753 -0.018706009 -0.024335872 0.16175206 0.19574215 0.5685427 0.5062268 0.18937474 0.22687091 0.53624064 0.32342643 0.5384419 0.30306783 0.5370523 0.56778514 0.27321136 0.51787794 0.24059577 0.18759954 0.4958875 0.4339834 0.35820812 0.27108562 0.8338225 0.8316468 0.7567303 0.678758 0.8712093 0.85333097 0.73855966 0.66831195 0.593195 0.85410166 0.8449312 0.6653749 0.5874117 0.78495 0.7799634 0.70821387 0.6335286 0.50731015 0.67129475 0.5357609 0.5469431 0.4818176 0.5771787 0.5668111 0.5354891 0.1375894 0.13936019 0.14230648 0.099681586 0.15019134 0.2739148 0.5761901 0.5149807 0.47398627 0.56375533 0.5228857 0.45753938 0.20054618 0.37565866 0.57628334 0.5468933 0.46272442 0.2721677 0.4245102 0.48802817 0.37065881 0.5108094 0.46284172 0.26838848 0.4672295 0.30983722 0.25439483 0.18049267 0.04109867 -0.08365604 0.4285394 0.28242025 0.2529373 0.2303572 -0.20883852 0.35388368 0.43546075 0.369198 0.2343997 0.28908658 0.53156555 0.5037033 0.3312428 0.14607204 0.3000976 0.3169899 0.56431717 0.58766866 0.5886543 -0.087995306 0.10089548 0.20581573 0.27680066 0.31645894 0.579144 0.5624818 0.07447522 0.12993321 0.17439714 0.24991718 0.5030457 0.42867377 0.19745219 0.14079072 0.33734816 0.36121443 0.100579314 0.36565328 0.3874427 0.4113444 0.37600058 0.23944785 0.17292413 0.38707477 0.38825935 0.6931809 0.77152085 0.7535377 0.7217802 0.59517455 0.79979646 0.8239877 0.5001147 0.8146963 0.3812792 0.72737503 0.7002895 0.4743458 0.3952108 0.6522943 0.6194015 0.58134353 0.46859816 0.4293183 0.36425278 0.47258812 0.38435528 0.53643894 0.5002846 0.46727782 0.30528465 0.20359369 0.18687443 0.6024326 0.53694594 0.5099744 0.5490462 0.39287102 0.15575658 0.17320862 0.011620197 0.34042457 0.6230403 0.59187245 0.5312396 0.45725992 0.25705597 0.6390501 0.59496355 0.37295908 0.54207885 0.35180762 0.2602193 0.2900088 0.46123916 0.42484635 0.1981028 0.50919855 0.31604955 0.25942948 0.54954576 0.3099569 0.53522277 0.54289997 0.2804259 0.46302918 0.4310668 0.052310243 0.10940269 0.10504844 0.11592201 -0.12257406 -0.02157206 0.10128608 0.104420125 0.08961971 0.05151366 0.20774382 0.05302743 0.0006085932 0.006479375 0.072329514 0.092433095 0.077437446 0.23903412 0.35206372 0.2257512 0.093796305 0.3606206 0.39804527 0.41901645 0.3758062 0.44476855 0.45762604 0.40466133 0.4201527 0.44547704 0.4289565 0.3211167 0.23599942 0.6469741 0.458675 0.7386136 0.24522412 0.7235808 0.24421664 0.632728 0.14187855 0.50566 0.30690277 0.25226134 0.20771994 0.46167946 0.4576218 0.43557757 0.3829553 0.32487833 0.26170304 0.38295516 0.34845924 0.31543896 0.38775235 0.31788188 0.26854926 0.2401176 0.21237415 0.15949869 0.38724446 0.5292301 0.56700826 0.5922065 0.7073964 0.6427449 0.5386393 0.36228245 0.41543844 0.5021801 0.5321812 0.75952035 0.72563946 0.40275097 0.27086028 0.35382983 0.7201855 0.53808075 0.070402265 0.43933704 0.28719538 0.015448935 0.32976976 0.47482264 0.22703075 0.10281045 0.48805135 0.23614416 0.45395672 0.111086704 0.4430637 0.38313422 0.16480355 0.08790877 0.3020325 0.10557021 -0.04584956 -0.028632341 -0.033799388 0.055663243 0.070733994 0.00843606 -0.094494194 -0.043079466 0.2091972 0.28200373 0.017749995 0.016268894 0.037201464 0.04328115 0.18169951 0.17702863 0.25687525 0.26839268 0.29039255 0.12315031 0.017172381 0.401941 0.35564286 0.2933572 0.33411133 0.40795046 0.2322351 0.2426436 0.10487664 0.09692177 0.09114699 0.103879236 0.1197526 0.29592282 0.08513426 0.12137441 0.16841282 0.18841378 -0.07377632 -0.018157326 0.13936399 0.14008605 0.2139565 0.1702628 0.21122019 0.25635558 0.27514917 0.34138978 0.23829648 0.2689548 0.39864618 0.2115357 0.21085438 0.36314732 0.18914586 0.18243358 0.30856627 0.3181416 0.3618074 0.31725323 0.26211372 0.36065853 0.3524068 0.34689137 0.33220175 0.36387992 0.31017616 0.29171997 0.4774217 0.56843656 0.61735415 0.26129285 0.30970782 0.31343567 0.25045726 0.1734913 0.017522164 0.12219147 0.2873961 0.43158764 0.5552869 0.62360793 0.6219213 0.7537497 0.74404883 0.6626643 0.5601821 0.3644472 0.032834865 0.19425759 0.56999755 0.5424212 0.7711531 0.408216 0.42050812 0.74632347 0.31477216 0.48802346 0.65757346 0.56160724 0.6070804 0.51805 0.4797419 0.55872154 0.61454874 0.4632461 -0.16263646 0.30186766 0.4299972 0.004299227 -0.25687107 0.36649093 -0.061010323 0.35981795 0.35601547 0.019025773 0.21523562 0.06051521 -0.0643907 0.00599528 0.034122124 -0.028113836 -0.11894806 0.07076905 -0.009485349 0.013988577 -0.04458859 0.1915479 0.1838965 0.1708397 -0.076129295 -0.010286137 -0.05586181 -0.04581523 -0.058292553 0.15355495 -0.19057521 0.28611255 -0.06844018 0.13276994 0.19963981 0.12810849 0.0029595941 0.08212244 0.11535135 0.15359707 0.15777032 0.24947453 0.19122119 -0.100591 0.090834446 0.12453575 0.12380152 0.15653758 0.23572135 0.38116622 0.3569336 0.37846428 0.13506687 0.22246306 0.29151595 0.3882071 0.5034952 0.37074023 0.36566868 0.2359561 0.30103028 0.3873766 0.47909328 0.3295557 -0.2966437 0.31067044 0.36213678 0.430166 0.11612185 0.32581103 0.32548374 0.22941396 0.19910377 0.24916333 0.24506983 0.23309052 0.25137603 0.16662586 0.19298717 0.2847066 0.2542408 0.2713229 0.33532327 0.33944207 0.32168537 0.39068055 0.35211053 0.37298578 0.36988163 0.36151385 0.38176668 0.30527627 0.3098131 0.32594585 0.27758873 0.32308444 0.41159618 0.55250025 0.64203465 0.6623789 0.20831855 0.2888804 0.25931802 0.13671868 0.05903968 0.19068313 0.6517424 0.5891367 0.7345496 0.72200423 0.6907031 0.533233 0.09717543 0.1013005 0.13623908 0.5492857 0.73437494 0.42765436 0.34736982 0.7314415 0.48342142 0.5423447 0.6671872 0.6156079 0.40267223 0.63579047 0.5217377 0.6218707 0.23117092 0.38312644 -0.0411964 0.1836205 0.28747672 0.3941857 -0.24453828 -0.12144504 0.0661046 0.24757484 0.2981244 0.36663547 0.0083846785 0.22743064 0.26604763 0.33414832 0.31070715 0.10250422 0.18801562 0.23921643 0.11523272 0.009117294 0.06165257 0.10463481 0.060673628 0.03902757 -0.075050324 0.012109372 0.076987125 -0.10217948 -0.16260427 0.061297797 0.084070146 0.082588516 -0.12680313 -0.19066057 -0.1448658 0.2730907 0.2912102 -0.18342522 -0.15854925 0.24323952 0.3034939 0.34496123 0.003963843 0.2584327 0.20914906 0.47119665 0.6636379 0.71445376 0.19967112 0.25889364 0.5909287 0.70664054 0.2834223 0.3498433 0.5367789 0.65931255 0.3504933 0.2698378 0.16441964 0.015693441 -0.25145546 0.4698507 0.56998885 0.07783498 0.43551782 0.11870563 0.13804297 0.2632067 0.066077694 0.09519762 0.109178424 0.3403293 0.3693939 0.100178316 0.41653752 0.4241572 0.27325523 0.35250264 0.37502417 0.37106144 0.41227937 0.41021574 0.3615715 0.3698714 0.24133715 0.31804508 0.3377905 0.27598023 0.3321522 0.5153034 0.6422551 0.26985043 0.22943239 0.27425843 0.041816283 0.17655122 0.65207803 0.66489255 0.69982326 0.6748328 0.1583798 0.56675375 0.7074738 0.6817659 0.37509656 0.32883698 0.6779139 0.54342085 0.6032155 0.037693262 -0.14820683 0.6277815 -0.1397691 0.58533007 0.10556321 0.3536501 0.3138221 0.39140028 0.33350992 0.3096617 0.38803595 0.26312315 0.27834338 0.36686426 0.19946948 0.17528799 0.14810404 0.12743527 0.07345782 0.013770545 0.05891962 0.07189813 0.05794896 -0.2090449 -0.011908218 0.0822441 0.4406821 0.39760506 -0.33039144 -0.27314883 -0.090578616 -0.16873667 -0.35755107 -0.22653715 0.32874265 0.55023414 0.46062756 0.42702544 0.010736389 -0.007699812 0.033624794 -0.18075526 -0.25521627 0.35536888 0.5466615 0.49918324 0.4181683 0.055999573 0.038645227 -0.101849414 -0.034369543 0.5249511 0.70988286 0.5075017 0.44258696 0.015070447 0.14435732 0.72337 0.7629932 0.16153076 0.7665973 0.76004577 0.091718756 0.25591123 -0.567953 0.68262017 0.7041272 0.24235073 0.1742729 0.06539106 -0.53743714 0.5898254 0.26331434 0.3059336 0.15023424 0.41334316 0.4994537 0.06692107 0.19077489 0.3213786 0.006053865 0.13918081 0.043269396 0.049147904 0.07141012 0.40653262 0.40486175 0.057210103 0.1107489 0.13934168 0.20014367 0.39069858 0.38616404 0.23679215 0.23993912 0.3313521 0.33148673 0.37381577 0.22637334 0.2896884 0.31621987 0.24077739 0.27748564 0.5038403 0.44318914 0.26185235 0.08896277 0.15807636 0.209674 -0.0040455535 -0.12686831 0.15344945 0.18756604 0.35483617 0.5117223 -0.15088181 0.49533117 0.65006894 0.3189879 0.31006417 0.44871676 0.06667645 -0.13980289 0.49489588 0.55820966 -0.15146363 -0.29877344 -0.22730298 0.15227836 -0.01266003 -0.10468359 0.2635122 0.2764349 0.29013443 0.25706264 0.16531943 0.38523984 0.23634733 0.15724085 0.3576333 0.13724989 -0.039939694 0.05778496 -0.075087346 0.05847355 0.015241936 0.23391277 0.25932002 0.15052396 0.33650678 0.2967115 0.2657726 0.44583064 0.2795451 0.54487544 0.56931275 0.36077273 0.03331502 0.067855835 0.09183872 0.5506475 0.501469 0.42054042 0.10437421 0.07295904 0.04688904 0.6786071 0.75115204 0.7578184 -0.009829536 0.7293432 0.6589792 0.03841374 -0.57314134 -0.52045196 0.5704379 0.4593779 0.4542458 0.34384114 0.1205025 0.17287466 0.1429035 0.12607731 0.45756423 0.6072866 0.5576086 0.37223014 0.104082756 0.08866735 0.041809484 0.25961104 0.66866004 0.6635183 0.6096908 0.55090797 0.16699445 0.6704394 0.61225116 0.28319335 0.033553675 0.3475613 0.10498568 0.049808428 -0.009877861 -0.0313265 0.33074835 0.3487753 0.16663173 0.09896481 -0.020726483 0.27838096 0.22974819 0.7418373 0.79908216 0.26296583 0.3005792 0.1532888 0.23887525 0.2504502 0.7934091 0.82971984 0.3265574 0.3551286 0.3552011 0.35311347 0.4582523 0.2569934 0.25981906 0.5263708 0.54885304 0.53891414 0.41777024 0.33958736 0.17424878 -0.04433594 0.4198717 0.4771222 -0.0041461773 -0.04827221 0.39381254 0.37120155 0.2846516 0.33602834 -0.42082626 0.46190038 0.6469869 0.2763719 -0.28839102 0.26150212 -0.46513584 0.17058665 0.3739809 0.5838102 0.5332801 0.5656775 0.21907228 0.25632432 0.34420884 0.48587316 0.30074328 0.31477976 0.23078257 0.10725427 0.0369284 0.05499971 0.10794389 0.36331195 0.27044788 0.14634065 0.37062955 0.38738352 0.44900262 0.11346573 0.52494603 -0.011941947 0.00049934536 0.5356493 0.5421912 0.5123727 0.46375883 0.27073187 0.03318249 0.61688805 0.7035269 0.51951224 -0.086059764 -0.032894053 0.63293 0.16452013 -0.096876085 -0.16133654 0.44364738 0.6075341 0.42420435 0.3055841 -0.0337037 0.05952447 0.38783062 0.5215136 0.5026127 0.5314945 0.0015208572 0.5867943 0.60379314 0.062276542 -0.035086766 0.04024934 0.07538407 -0.08003726 -0.07547909 0.6594696 0.6826269 0.4291626 0.2006937 -0.0412883 -0.32502896 0.65555847 0.67252326 0.62203705 0.5316706 -0.016285174 0.6522051 0.10126169 0.12084159 0.09717567 0.11020338 0.19263801 0.4019212 0.45895916 0.12675734 0.13674946 0.1303116 -0.02975604 0.2209074 0.17204231 0.42327833 0.6059462 0.65255547 0.7417133 0.13599725 0.13709293 -0.08347672 -0.27724695 -0.3051667 0.1881563 0.15645595 0.12435086 0.57607627 0.6590497 0.78268945 0.8195392 0.2364711 0.09620366 -0.09838224 0.0689739 0.1710285 0.215438 0.1785192 0.13644615 0.58197147 0.6897213 0.7486123 0.84477174 0.8365499 0.24885061 0.31421232 0.3264002 0.1829445 0.08962999 0.17694286 0.20695741 0.15918133 0.6095582 0.6850126 0.8006999 0.8245555 0.82211083 0.3324121 0.35324502 0.33060277 0.20273918 0.112944014 0.33249155 0.33954358 0.3162301 0.2149247 0.5542626 0.5170275 0.4815375 0.48345575 0.5415322 0.5163596 0.5610883 0.5672895 0.33827448 0.15092334 0.10719785 0.23821703 0.4013059 0.48377663 0.4645248 0.46794942 0.46603155 0.41335857 0.31938267 0.43427455 0.46955478 0.09995283 0.371365 -0.053141348 0.2996066 0.64771366 0.49240828 -0.13439898 0.697069 0.68885136 0.60418385 0.40215763 -0.17718956 -0.03027238 0.100352444 0.28291488 0.6668924 0.6507273 0.12040849 0.44066155 0.4372026 0.59390056 0.5764172 0.40082997 0.42600363 0.46616763 0.3809971 0.30472732 0.3690341 0.08499473 0.03145352 0.22271377 0.0059401207 0.0236157 0.32176393 0.28324673 0.050473943 0.055785783 0.36542767 0.09619326 0.46057585 0.40229574 0.091115884 0.43731022 0.054509066 0.43843943 -0.035019875 0.4770225 0.49507016 -0.07767267 0.52367187 0.53640115 -0.1287393 -0.29965693 0.5242814 0.4928529 -0.1128785 -0.13434386 0.20974809 0.3430757 0.13661799 0.19063354 0.5018129 0.16037555 0.54782486 0.5462154 -0.11669132 -0.4201948 -0.43651903 0.5070785 0.54240525 -0.11329289 -0.2765986 -0.47308412 0.546334 0.6148068 0.37368485 -0.10566279 0.04874105 0.026312016 -0.018021531 -0.24960886 -0.04374407 0.6346022 0.6054212 0.4005555 -0.062350515 0.015749058 -0.108954914 -0.042172 0.113856055 0.2653351 0.33650944 0.3789327 0.07308302 0.10659883 0.12783152 0.37418815 0.62811786 0.1465604 0.12439629 0.11012237 -0.21972546 0.3140284 0.794603 0.16859475 0.15338537 0.105225995 0.13323091 -0.087727144 -0.30452356 -0.14831664 0.12195854 0.78651726 0.1337802 0.015633436 -0.07954685 -0.00040134788 0.17895085 0.16140613 0.15514277 0.5328761 0.6209823 0.6383244 0.6922209 0.7482365 0.72865206 0.24224022 0.074118875 0.07902935 -0.037560254 -0.0114727095 0.11855839 0.15874302 0.16541734 0.5903219 0.6150397 0.66643715 0.6934048 0.33650297 0.35843188 0.19591244 0.06287582 0.34991023 0.38431808 0.37690458 0.32060456 0.24500138 0.1349908 0.41226143 0.4124483 0.41044217 0.5646827 0.5368322 0.50342435 0.5203583 0.5649571 0.54853374 0.57045794 0.5702505 0.549476 0.4704557 0.33574575 0.16875497 0.15683763 0.53485274 0.4980436 -0.024479903 0.018455561 0.46629447 0.49132016 0.3657901 0.49288693 0.49041963 0.03520853 0.46047857 -0.025992736 0.69925267 0.6342269 0.55142915 0.34804115 0.017055862 -0.008034639 0.006666079 0.12755935 0.19802295 0.6951741 0.33889377 0.39453304 0.6467184 0.43599662 0.44724023 0.5698919 0.44277287 0.4324069 0.4972428 0.39417434 0.42256522 0.4098301 0.33637056 0.28674215 0.18110868 0.277429 0.3602743 0.15925571 0.37617633 0.10208593 0.17150828 0.44942158 0.13377029 0.16392615 0.49122235 0.039249703 0.11878091 0.48976946 0.4691861 -0.05954494 0.44132215 0.4370094 0.4770022 0.36569053 -0.31300107 0.2758022 0.34855053 0.34175053 0.4996145 0.4875853 0.3837397 -0.20889843 -0.1314547 0.36486697 0.36968914 0.36289102 0.29429552 0.23426586 0.34724078 0.33884338 0.40733898 0.17135456 0.46648663 0.1036406 0.44946897 0.42005277 0.3942775 -0.2853912 -0.1435695 -0.07792422 0.3933 -0.0360974 -0.035992112 0.17341249 0.49938428 0.28683737 0.27201173 0.047780313 0.115677536 0.2127554 0.16403547 0.6260966 0.2511735 0.22434445 0.22032934 0.627848 0.2857175 0.27252483 0.23626164 0.18357411 0.10493087 0.13997474 0.41386992 0.6303023 0.6410495 0.16691574 0.09883866 0.011473052 0.11542752 0.14247957 0.15882188 0.52239877 0.5517818 0.59500206 0.6151899 0.6114519 0.24723305 0.13494104 0.007476438 0.06281662 0.16434532 0.5764034 0.57803226 0.3533646 0.23311588 0.17521612 0.21847549 0.28734124 0.4139156 0.45160276 0.44142076 0.3915636 0.30701125 0.3619578 0.4097622 0.41371262 0.45839027 0.3911777 0.43525213 0.49936002 0.55148387 0.56600845 0.56141764 0.5635518 0.5342734 0.43343788 0.35891575 0.20369047 0.16572034 0.27859604 0.42118627 0.54281867 0.5028802 0.54328346 0.4542048 0.24294542 0.16657835 0.0044795126 0.030545658 0.06746541 0.45327583 0.46122748 0.49494475 0.17680988 0.31964922 -0.040704146 0.5078842 0.5046059 0.07728029 0.024648398 0.46070138 0.15881953 0.19124553 0.13804239 0.62555254 0.5322126 -0.022486612 0.15509716 0.1486106 0.64625347 0.22067109 0.2634179 0.3789419 0.6019424 0.6131509 0.40204477 0.3718472 0.5323969 0.41284275 0.43365985 0.3866154 0.34680834 0.34081346 0.2700208 0.27017617 0.42225602 0.39176896 0.18656138 0.21633162 0.46671423 0.43460155 0.18644325 0.19854721 0.50468177 0.15369283 0.48787177 0.46779117 -0.22685519 -0.13160944 0.42815584 -0.30958056 0.4154387 0.39120758 -0.3831012 0.4362289 0.37008882 -0.6789295 0.10525511 0.24441513 0.2856402 0.3284119 0.2975044 -0.099598646 -0.11368843 0.32951406 0.097865894 0.32779586 0.27324143 0.16572523 0.27603918 0.032578673 0.18492275 -0.12909737 0.27645016 0.36953697 0.11535422 -0.072468095 0.12576233 0.28080794 0.4015743 0.5410282 0.18876395 0.108912796 0.3054718 0.3750644 0.5805336 0.5167452 0.59620523 0.44486263 0.5451126 0.26657286 0.3177608 0.29391083 0.010827154 0.07413241 0.5189699 0.50536346 0.3705032 0.3132836 0.21971947 0.15992357 0.047481626 0.52901673 0.5122664 0.5405631 0.5413315 0.14238586 0.06488831 0.113971904 0.203879 0.53578204 0.5499658 0.24731275 0.26054487 0.23042491 0.4661793 0.3852837 0.4543524 0.43865675 0.48066717 0.4688561 0.40039825 0.44030902 0.47487003 0.49021083 0.48302966 0.5351603 0.55261135 0.24411152 0.4481703 0.48889354 0.5240571 0.51272166 0.30965272 0.18094188 0.12110115 0.27698743 0.38200164 0.45943695 0.48326477 0.15081973 0.05173471 0.03758397 -0.015584767 0.47621733 0.2746424 0.2346273 0.05585599 -0.058271866 -0.040256895 0.44337773 0.1995607 0.25264037 0.27689618 0.39173058 0.40991265 0.27095193 0.26873606 0.045833312 0.08540916 0.4006945 0.1705873 0.18495134 0.5572342 0.45547488 0.47036052 0.34489468 0.3941208 0.35541743 0.3266906 0.30417255 0.20819336 0.31809083 0.29534197 0.27893 0.20990762 0.45323402 0.19044456 0.49159554 0.48570147 0.18045709 0.42548752 -0.2431308 -0.21573791 0.41882318 0.34799606 -0.25281668 0.32922888 0.16718817 0.18769729 0.24256907 0.17909685 0.27970904 0.2840825 0.24742284 0.37281877 0.33423886 0.21645497 0.36943948 0.33093077 0.24641004 0.3908182 0.28381345 -0.077191256 0.32383624 0.22181796 0.23000532 -0.11369592 0.21541268 0.42762727 0.6633185 0.7518563 0.17096159 0.16032618 0.4660692 0.6338368 0.7783852 0.23601988 0.19142294 0.6775058 0.77619195 0.82651675 0.27445823 0.25719303 0.61261797 0.7179767 0.15671305 0.550691 0.20923407 0.2972167 0.35558975 0.41132665 0.41826454 0.41452414 0.4104877 0.44084132 0.46817508 0.43073136 0.43965435 0.4248803 0.14282355 0.2459159 0.2425683 0.4189643 0.29499555 0.2467197 0.42057377 0.4380895 0.38789636 0.45251414 0.4515533 0.20364372 0.25478247 0.38972604 0.48753983 0.50683856 0.4971755 0.4938649 0.48742718 0.46238387 0.07679612 0.34359542 0.4090614 0.35810712 -0.004531678 -0.01746677 -0.0050472366 0.021564156 0.113700464 0.16376498 0.29640293 0.38219893 0.42606765 0.2710787 0.23944137 0.11463928 0.060000427 -0.09793926 -0.013515849 0.06714665 0.07101345 0.38546294 0.18564737 0.24570683 0.25924176 0.14383605 0.009578773 0.0031201243 0.35223913 0.21