# vtk DataFile Version 2.0
Really cool data
ASCII
DATASET POLYDATA
POINTS 8137 float
6.053812 3.9526696 -53.43296
6.051327 3.9349835 -52.66885
6.258672 4.0833035 -51.84634
6.129703 4.372035 -53.97165
5.8099627 4.580222 -53.383823
5.8099494 4.6195207 -52.61192
6.153183 4.601252 -51.760162
6.186478 5.2359004 -53.997894
5.95817 5.4491277 -53.382713
5.894346 5.360547 -52.566372
6.1137676 5.3382754 -51.933853
6.229616 5.74459 -53.780132
6.2194424 5.9948907 -53.309772
6.1723394 5.967848 -52.57903
7.2549644 -0.9211913 -55.801064
7.435183 -1.051918 -54.017403
7.362415 -0.0708642 -57.280346
7.187957 -0.3696664 -56.476437
7.136613 -0.4521969 -55.683094
7.2384176 -0.3976717 -54.706646
7.3529344 -0.5124535 -53.367012
7.318948 -0.3423431 -52.925545
7.376106 0.64262044 -57.84808
7.3971043 0.5010946 -57.51242
7.056625 0.6268178 -56.258904
7.0076485 0.6631443 -55.59621
7.2806168 0.50550777 -53.490788
7.406541 0.25054967 -52.53371
7.4535685 1.2844994 -57.94804
7.3320956 1.3077731 -57.2613
7.1684055 1.1037071 -56.3715
7.225194 1.5231309 -55.819866
7.1923823 1.3211957 -54.963806
6.964166 3.2602909 -53.770008
6.8342814 3.2495675 -52.47756
6.4420376 3.796835 -54.02908
6.4997244 3.452958 -52.94212
6.729128 3.9198394 -51.53368
6.868803 4.154435 -51.2893
6.4767222 4.3765903 -54.299103
6.616726 4.594669 -51.343952
7.1247354 5.2045636 -54.649597
6.5665827 5.3277464 -54.25064
6.591731 5.39526 -51.467476
6.787547 5.294015 -51.303947
6.647568 5.915291 -53.928448
6.595673 6.3407063 -53.224113
6.6346855 6.40144 -52.573963
6.6721478 6.113177 -51.957794
6.95975 6.601151 -53.14843
6.866305 6.5952096 -52.81065
8.275956 -8.826405 -50.09575
8.284083 -8.855678 -49.82967
8.285066 -8.405584 -50.847496
8.104458 -8.385577 -50.359703
8.100034 -8.384988 -49.573097
8.215124 -8.287461 -49.0195
8.231115 -7.6922407 -51.07069
7.927807 -7.5535316 -50.179703
7.9134407 -7.501875 -49.73621
8.07861 -7.2456803 -48.708202
8.321529 -6.4551167 -51.509743
7.945136 -6.060932 -50.251537
7.770356 -6.479872 -49.406578
8.036133 -6.6040783 -48.567772
8.249691 -6.74963 -48.28374
7.8610625 -5.006381 -50.974083
7.8624377 -5.381509 -50.396347
7.857336 -5.3626204 -49.5478
8.102358 -5.78418 -48.639507
8.245039 -5.8554654 -48.321373
8.242091 -4.487231 -52.18671
7.9521055 -4.263424 -51.637276
7.655592 -4.118891 -50.572258
7.8085294 -4.414431 -49.763866
7.963197 -5.0685177 -49.10873
8.235462 -2.9698703 -52.948486
8.050639 -3.4175909 -52.432056
7.882281 -3.7310042 -51.358368
7.762244 -3.4843605 -50.118057
7.9338884 -3.7357209 -49.6797
8.309975 -3.7909408 -49.150646
7.9883776 -1.9546266 -53.492603
7.921094 -2.4230967 -52.244747
7.823582 -2.5868163 -51.39715
7.936586 -2.3006546 -50.640377
8.229101 -3.004042 -49.562008
7.7240043 -0.88967055 -57.201183
7.583638 -1.1539576 -56.381683
7.6131644 -1.3061247 -55.77342
7.870589 -1.175802 -54.61653
7.742042 -1.5324603 -53.76887
7.6362343 -1.3061702 -52.45418
7.6506705 -1.5774784 -51.61364
8.038111 -1.7857813 -50.50171
8.236084 -1.726059 -50.221424
8.056952 0.07029614 -58.680176
7.9470496 -0.19268608 -58.261745
7.5665336 -0.722183 -57.19814
7.6121707 -0.47793788 -52.189262
8.012467 -1.0861101 -51.029224
8.042444 0.43520463 -58.75906
7.689085 0.40968728 -58.323185
8.023883 0.26102704 -51.694077
8.111964 1.5681623 -58.91286
7.7831907 1.4463543 -58.45161
7.477249 1.3721937 -57.782753
7.70016 1.2948594 -53.535835
8.195496 2.5343604 -58.946827
7.8654265 2.4786046 -58.287758
7.7371073 2.336995 -57.753426
7.6207657 2.1948698 -56.270027
7.8526397 2.7108736 -55.620148
7.9637465 2.7510011 -54.535557
8.181953 3.187827 -58.260612
7.8821316 2.8488462 -55.662132
7.5655837 3.56538 -51.514935
7.656743 4.1160226 -51.022137
7.3869615 4.8351474 -50.99095
7.9388885 5.3730707 -54.85346
7.3964868 5.6400566 -54.558094
7.4549246 5.003299 -51.023827
7.55125 6.372067 -53.909946
7.262982 6.484586 -53.585632
7.4600983 6.4171653 -51.965168
7.992405 5.8397927 -51.220802
7.545859 6.676702 -53.301144
7.3417006 6.6485095 -52.490593
8.790718 -8.818326 -50.98785
8.687831 -9.083416 -50.44816
8.680278 -9.168435 -49.4928
8.85368 -9.110905 -48.880066
8.592406 -8.343843 -51.181347
8.394377 -8.698015 -50.738087
8.601905 -8.602456 -48.634735
8.844414 -8.452449 -48.318134
9.118486 -7.8382683 -51.572273
8.751898 -7.6498184 -51.4356
8.422862 -7.6635213 -48.45002
8.544152 -7.421949 -48.18153
8.947718 -6.33841 -52.266632
8.413735 -6.110296 -51.694614
8.686807 -6.463545 -47.985622
9.025793 -5.2155123 -52.778835
8.70818 -5.5610514 -52.270718
8.661201 -5.2419286 -48.462795
8.807871 -5.8655806 -48.02712
8.917206 -4.560002 -53.039215
8.534684 -4.7131724 -48.582607
8.820211 -4.8967814 -48.373093
8.67371 -2.7574563 -54.181816
8.406595 -2.9500134 -53.32944
8.804243 -3.6613114 -48.834934
8.826965 -1.6290761 -57.0298
9.114776 -2.375975 -55.71125
8.980791 -2.7130597 -49.08528
8.775581 -0.8840394 -58.044907
8.628336 -1.2100902 -57.38721
8.861686 -1.6128769 -49.693317
9.103561 -1.9398314 -49.331448
8.552843 0.030106291 -58.826588
8.487905 -0.38836542 -58.49048
8.608254 -0.7003776 -50.1636
9.250158 -0.93103546 -49.23745
8.614684 0.5610246 -59.020943
8.607256 1.4077924 -59.105766
8.481812 1.95477 -52.400093
9.034681 1.431196 -51.730614
8.674882 2.5755167 -59.300907
8.853116 2.793676 -51.851963
9.096469 2.8824835 -47.951416
9.086886 2.7356489 -47.408306
9.187049 2.8478856 -46.846844
8.629865 3.2135992 -59.03555
8.414134 3.4942434 -58.467663
8.383445 3.4866755 -57.440468
8.447345 3.1209083 -56.270958
8.994091 3.4186592 -48.111378
8.89854 3.4437947 -47.445923
9.120308 3.3933775 -46.830837
9.038628 3.6411254 -58.853924
8.788915 3.716686 -58.39748
9.065626 3.9027162 -57.88354
9.013002 3.8680925 -56.657013
8.538437 4.4395475 -55.270203
8.275935 4.537073 -50.596043
9.076547 4.422954 -48.33804
9.144237 4.563424 -47.45897
9.196677 4.1610017 -46.906185
8.42717 5.1835313 -55.136925
8.272323 5.1021585 -50.714417
9.189898 4.9980607 -48.520824
9.31697 5.108958 -47.696583
8.395594 5.7217484 -54.720097
8.439324 6.212377 -54.2029
8.457408 6.504845 -51.73576
8.804652 6.76774 -53.256824
8.661124 6.8396153 -52.47131
8.959453 6.7900095 -51.921627
10.47809 -17.426039 -47.38638
10.460449 -17.462877 -47.03344
10.486129 -16.99613 -47.152866
10.162211 -10.665636 -41.16505
10.196945 -10.681744 -40.791466
9.554988 -9.5267105 -49.18741
10.024311 -10.301525 -41.335037
10.017964 -10.281391 -40.606045
10.20619 -10.263334 -40.165485
9.497023 -8.933422 -51.13866
9.48112 -9.372936 -50.410595
9.411813 -9.226313 -48.687893
9.723427 -9.110141 -48.330757
10.121277 -9.444934 -41.90383
9.864407 -9.65391 -41.345592
9.858487 -9.543661 -40.604652
10.126065 -9.460874 -39.926502
9.436753 -7.9393406 -51.59308
9.349653 -8.442938 -51.365963
9.550725 -8.490094 -48.15277
10.358405 -8.133883 -42.25991
9.931674 -8.662549 -41.312035
9.983388 -8.688208 -40.584625
10.214332 -8.585312 -39.970856
9.299997 -7.2744036 -51.941425
9.2291975 -7.274666 -47.82094
10.298904 -7.718414 -42.05847
10.172057 -7.7375994 -41.507286
10.275271 -7.542523 -40.598793
9.849224 -6.1093636 -47.71938
9.660971 -5.315666 -52.926445
9.654276 -5.5484076 -47.915634
10.305648 -4.2938404 -55.09434
9.68034 -4.9772625 -48.168076
10.035553 -3.4767473 -55.30277
9.688409 -3.3649406 -54.730576
9.4738455 -3.481029 -48.62872
10.044892 -2.1790168 -56.94908
9.904507 -2.458043 -56.317627
9.2896595 -2.4728827 -55.782097
9.732756 -2.4918396 -48.901424
9.972811 -1.1061478 -48.67755
9.417593 -0.1057383 -58.79604
9.750724 -0.54836327 -58.428444
9.510332 -0.41513914 -49.330254
9.95339 -0.5711352 -48.67857
9.28941 0.44522026 -59.012238
9.067471 1.7584864 -59.41437
10.022225 1.3324622 -49.952248
9.930906 2.146248 -48.241055
9.911522 1.8909123 -47.286674
9.923423 2.1211493 -46.84585
9.217887 2.3626525 -59.537003
9.329057 2.4573696 -59.3908
9.691673 2.8864162 -50.71559
10.099882 2.4649303 -49.67168
9.592368 2.44399 -48.814163
9.462937 2.635604 -46.738457
9.778278 2.8614893 -46.355247
9.379477 3.2515461 -59.203575
9.3933525 3.453938 -46.50087
9.83701 3.43584 -46.21735
9.167571 3.6470542 -58.838074
9.316833 3.8058538 -58.53296
9.652662 4.0218134 -57.45981
9.521854 4.004973 -56.46162
9.584893 4.3371954 -46.580452
9.904364 4.314117 -46.28658
9.584012 5.1598344 -55.105503
9.543432 5.5889688 -48.60349
9.510236 5.495617 -47.706345
9.837123 5.334194 -46.890823
9.302996 6.498701 -53.81845
9.466651 6.1923056 -50.973675
10.08248 6.0370007 -48.60953
9.911652 5.8344502 -47.57863
10.089275 5.7166724 -46.98555
9.387608 6.8145294 -53.219814
9.452405 6.996994 -52.354256
9.619549 6.769317 -51.648567
11.179234 -18.62365 -47.45154
11.185936 -18.622839 -46.827286
10.97237 -18.240786 -48.05606
10.710432 -18.155224 -47.47861
10.898765 -18.230898 -46.73833
11.184638 -18.101791 -46.019787
11.129105 -17.470335 -48.702354
10.787235 -17.438097 -48.316616
10.554205 -17.651268 -47.619167
10.635235 -17.527061 -46.671635
11.0262785 -17.562126 -45.912983
11.21529 -16.500965 -48.957787
10.807914 -16.55629 -48.320896
10.6247835 -16.59281 -47.437634
10.647193 -16.808157 -46.70804
11.015406 -16.521837 -45.95629
11.19772 -15.858347 -48.91963
10.9326 -15.900007 -48.350536
10.8033695 -15.799553 -47.627434
10.958008 -15.652071 -46.71997
11.1768055 -15.654223 -46.016743
11.297835 -15.037503 -47.71853
11.356373 -15.137797 -46.009262
10.573091 -10.858969 -41.32996
10.545696 -10.835016 -40.589085
10.748992 -10.716776 -40.00246
10.599184 -10.140159 -42.08051
10.674603 -10.31268 -39.69145
10.942969 -9.919684 -39.102127
10.531619 -9.053556 -50.92377
10.275668 -9.200959 -50.721188
10.413223 -9.501213 -49.95596
10.17424 -9.187117 -48.688644
10.524378 -9.265188 -42.33092
10.471052 -9.4371195 -39.444164
10.914354 -9.445314 -38.96861
10.256568 -7.9175963 -51.710445
10.341645 -8.270182 -51.434723
9.988701 -8.439158 -48.12317
11.202584 -8.362786 -42.91878
10.515559 -8.538612 -42.371376
10.455336 -8.733743 -39.44928
10.864354 -8.7396 -38.96652
10.781493 -6.7020373 -52.00093
10.128339 -7.5833993 -47.784164
10.882163 -7.4739075 -42.722363
10.66132 -7.284367 -42.43364
10.540557 -8.005402 -39.888424
11.295158 -5.8385754 -54.973022
11.27969 -6.008986 -54.746704
[...]
POINT_DATA 8137
SCALARS features_00 float 1
LOOKUP_TABLE default
0.8291389 0.8625166 0.774395 0.81854725 0.89449686 0.9429027 0.80743086 0.7912869 0.8460163 0.92876947 0.8895435 0.75847816 0.777923 0.84347343 0.40348735 0.21768227 0.5283319 0.48309642 0.41527748 0.3153302 0.25160778 0.26111513 0.54708207 0.52678144 0.4413848 0.3968401 0.2921598 0.26371908 0.5476004 0.46565992 0.4078406 0.32272577 0.2724412 0.5651138 0.6864148 0.7206336 0.77720296 0.65765107 0.6296835 0.7374561 0.6896317 0.6040203 0.7175465 0.7767669 0.72009706 0.6966758 0.7395725 0.76969135 0.8268958 0.7011254 0.7231015 0.7409351 0.7644565 0.6414495 0.6930907 0.7503531 0.7533041 0.5597497 0.6599496 0.6794431 0.63853866 0.41693702 0.5179947 0.55525845 0.56403375 0.57490164 0.39881736 0.45279837 0.47710648 0.49879432 0.50027215 0.29039624 0.32664904 0.38177124 0.42584354 0.46010563 0.18237896 0.24281198 0.32542455 0.36376745 0.3780902 0.36382252 0.15932259 0.22934538 0.29227927 0.28470835 0.30734482 0.51400447 0.43645138 0.35392994 0.22820176 0.17744099 0.23727216 0.26981798 0.25119096 0.2366686 0.5992604 0.58290803 0.52463114 0.2530898 0.24611622 0.6106578 0.5883292 0.20013884 0.68490314 0.62137926 0.5270157 0.24724816 0.80748224 0.6909289 0.55302596 0.32918864 0.21902928 0.020050623 0.72704035 0.22030455 0.47616705 0.51858205 0.6120976 0.4622956 0.57477903 0.61925507 0.60032403 0.6476643 0.72169584 0.6784097 0.62967026 0.6812309 0.6206563 0.7076659 0.81086844 0.8004328 0.58679223 0.6652154 0.76856196 0.7398248 0.46720195 0.49121585 0.68206096 0.6406181 0.30441833 0.370327 0.53151196 0.17858627 0.26727676 0.44412076 0.47992736 0.1570485 0.41219687 0.4093018 0.08492226 0.14036828 0.33281982 0.3488999 0.16079722 0.2563009 0.49778146 0.44026956 0.20840617 0.20729977 0.5852766 0.5644802 0.21097462 0.19994825 0.6150119 0.6986332 -0.016908258 -0.1259709 0.8388391 -0.11897609 0.6255904 0.65383136 0.66903627 0.81599987 0.73568666 0.59264815 0.3830693 0.64900434 0.6841551 0.6766114 0.76405984 0.70622295 0.6323231 0.46221364 0.21164235 0.4659976 0.62223506 0.6518563 0.66327876 0.340164 0.558642 0.5787878 0.6251132 0.4361927 0.49435598 0.5877369 0.52639043 0.5440576 0.5074566 0.7675568 0.74187577 0.7154163 0.7543967 0.7404834 0.8286423 0.7763035 0.74001944 0.6966344 0.5607743 0.70275396 0.7813555 0.72925293 0.7528556 0.7972838 0.7388685 0.65654933 0.44208932 0.5178396 0.69373274 0.6196325 0.7241218 0.6696985 0.56919676 0.37610784 0.6109545 0.59440887 0.6051289 0.52161443 0.46241957 0.113581054 0.4093955 0.08770391 0.3579315 0.06266621 0.034003295 0.2831528 0.1541891 0.11632675 0.14088193 0.20035581 0.16287327 0.50724936 0.4163224 0.19530916 0.16291627 0.5659456 0.7419463 -0.26193747 0.4531669 0.53766596 0.5814293 0.82009286 0.82232594 -0.3307863 -0.05888115 0.36704642 0.6542362 0.63549817 0.8112446 0.66336656 0.62591445 0.76041496 0.707418 0.56153464 0.37794125 0.64482963 0.62141204 0.2246914 0.562469 0.6155729 0.6255034 0.47071695 0.38708633 0.51928526 0.60529494 0.61358887 0.48621657 0.47685105 0.41885415 0.7646097 0.7232251 0.8054317 0.7940935 0.7345686 0.65037566 0.7341403 0.7839342 0.7937023 0.7128977 0.6346561 0.6551072 0.72699714 0.70408154 0.65937877 0.571172 0.64557415 0.6898035 0.66135406 0.5768292 0.51617885 0.6212009 0.49655026 0.72894996 0.70229477 0.6416346 0.71319324 0.63322365 0.5895997 0.4188334 0.50514823 0.6210776 0.7163317 0.662521 0.6057261 0.5590236 0.3078537 0.35212818 0.62802815 0.5605506 0.62722844 0.52686954 0.47007412 0.10178482 0.5611995 0.53328013 0.5321801 0.46520793 0.19202827 0.19706684 0.14415786 0.4364026 0.47783494 0.45975566 0.41933027 0.3131309 0.23987643 0.16926098 0.08981142 0.39184925 0.29737628 0.2622593 0.12589952 0.12768693 0.26473323 0.3120971 0.361394 0.15338075 0.35779503 0.45645702 0.43433994 0.3894172 0.39551425 0.1157608 0.41765404 0.46652782 0.48271394 0.43512607 0.21519709 0.11421262 0.44625282 0.46671587 0.4637998 0.4610945 0.46152967 0.35272154 0.44057986 0.04352083 0.6726216 0.4855269 0.061380778 0.7711164 0.7812148 0.694513 0.5912325 0.62668717 0.23626307 0.5764296 0.24438758 0.60211563 0.5882311 0.38834357 0.44135568 0.31396973 0.495504 0.5662811 0.58656144 0.4300096 0.41919062 0.40062374 0.73854125 0.7279281 0.67596227 0.6161049 0.726182 0.7526154 0.57912815 0.42064846 0.68727577 0.5381971 0.4800812 0.5829179 0.4042184 0.5550571 0.60521924 0.46596354 0.42031765 0.5962181 0.6491814 0.54184407 0.50296545 0.43943918 0.41550493 0.55662775 0.50580883 0.6604403 0.6631003 0.56238043 0.24233273 0.57976377 0.50196004 0.5275964 0.085738 0.13309042 0.52123076 0.5023122 -0.07820169 0.39161068 0.5088366 0.64471304 0.19264494 -0.11559799 0.35935915 0.50978184 0.21530095 -0.02953495 0.5355923 0.21258083 0.21688126 0.4321292 0.4011222 0.1218373 0.031413738 0.16710028 0.18036947 0.35989696 0.35067764 0.1955289 0.14990318 0.17875771 0.21369952 0.13398531 0.1039684 0.11515646 0.25163728 0.331257 0.305741 0.0048907474 0.054439165 -0.0065149367 0.262341 0.36068195 0.35899332 0.31823677 -0.022289153 -0.08651815 0.25443804 0.3404786 0.4174756 0.38413626 -0.04695295 -0.10634152 0.2506851 0.22186726 0.3303072 0.41457117 0.1758344 -0.0626926 -0.013978168 0.23514758 0.22943561 0.17938659 0.119107336 0.33788538 0.4015149 0.35055524 -0.37130874 -0.0307585 0.13577667 0.18952593 0.18662506 0.13606863 0.086428985 0.2135588 -0.038915515 0.14887711 0.47963512 0.43468374 0.47237408 0.4785205 0.6057539 0.17216742 0.07439393 0.4515192 0.5168278 0.54517615 0.5284667 0.43607166 0.67922246 0.70702946 0.68968487 0.6532476 0.5547621 0.7589183 0.75905067 0.37749082 0.25586686 0.1447582 0.3018911 0.4712459 0.5329256 0.2982536 0.2630528 0.33108965 0.60391355 0.5436887 0.43896896 0.4622159 0.52902514 0.62215936 0.4353008 0.5047976 0.38340968 0.42867956 0.50887066 0.5253912 0.5094084 0.37123334 0.5659788 0.37048244 0.49401486 0.4809776 0.40241832 0.4204015 0.4971124 0.3099436 0.3188871 0.28982902 0.2679131 0.24398981 0.24990433 0.3149444 0.2996149 0.35990438 0.36088967 0.1859024 0.21271652 0.18375446 0.19188938 0.7276886 0.7644251 0.7788336 0.09979494 0.06977008 0.17773136 0.67945135 0.70189184 0.74837196 0.7446785 0.24272399 0.11514915 -0.075646125 0.07271205 0.36894727 0.4208453 0.5369314 0.6287655 -0.067598104 0.20964503 0.22574276 -0.06470152 -0.0056849206 0.09474588 0.19967496 0.0052148737 0.10828798 -0.10962419 0.048089847 0.23056039 0.26542017 -0.18265083 0.090726666 0.29431894 -0.06782308 -0.20926034 0.16131563 0.133019 0.33805555 0.3199305 -0.08598718 -0.14053832 -0.20450343 0.098829105 0.18407553 0.30346888 0.61994135 0.5917772 -0.09798458 0.16023187 0.1764805 0.6583007 0.66142577 0.39524725 -0.014683276 0.12051861 0.13071856 0.04874295 0.12271963 0.30219504 0.686793 0.68492997 -0.034545362 -0.23440354 -0.13906345 -0.05002009 -0.008184016 0.039403513 0.25757742 0.283549 -0.23737691 0.16323546 0.37500578 0.5091652 0.4238972 0.6115212 0.6496842 0.27174553 0.4931067 0.48897797 0.7319506 0.7607415 0.76173013 0.72403663 0.24452417 0.14287394 0.13416776 0.18798703 0.26834047 0.37754232 0.4054628 0.7193068 0.741272 0.7464026 0.24770537 0.47864035 0.2871594 0.24689007 0.1947034 0.3374274 0.42635357 0.49953976 0.5214994 0.51746684 0.49672422 0.49457797 0.30409303 0.25356147 0.4484614 0.2728594 0.3441717 0.3789391 0.46411407 0.51405936 0.5172876 0.47301197 0.43651706 0.17685601 0.035275266 0.0980656 0.4186346 0.5217236 0.50719947 0.47334322 0.19689342 0.2976695 0.48920757 0.38498753 0.3009464 0.3247574 0.25807935 0.23880966 0.22308686 -0.11072272 0.059678353 0.24048556 0.23678507 0.21493766 -0.21351197 -0.06686961 -0.033983946 0.68742156 0.14706956 0.20902516 0.05347736 -0.053092837 -0.2097859 0.49618053 0.7364788 0.78505504 0.101422556 0.13541599 0.060708433 0.7819319 0.7561941 0.08876617 0.0069366843 0.6596526 -0.018224671 0.16584729 0.10951672 0.04813177 -0.10096699 -0.215314 0.43724754 0.56976193 0.105765566 0.018174306 0.09970379 -0.31598538 0.24714984 0.11366625 -0.0926488 -0.32641602 0.12273444 0.09046958 0.05952421 -0.13549392 -0.1255142 0.15250301 0.15474299 0.01119126 -0.031093411 -0.21872193 0.14117622 0.14032505 0.38423577 -0.111682154 -0.103100665 0.17443459 0.51203156 0.43194717 0.33917117 0.14079124 0.09989564 0.5878048 0.5660729 0.49047035 0.014664218 0.62993145 0.62647605 -0.051185995 0.22110996 0.3550443 0.6411344 0.6721374 0.5470799 0.00075247884 0.21617022 0.24241237 0.34510744 0.40502346 0.659778 0.5738915 0.4172911 -0.19633338 -0.012912905 0.14278811 0.28102502 0.15005101 -0.0021510608 -0.17047209 0.47467247 0.24725822 0.23149094 0.16853912 0.6471238 0.60862315 0.17478547 0.11501171 0.112004764 0.16592646 0.2742793 0.35496277 0.36667404 0.65902114 0.6574389 0.67031956 0.6873505 0.4627227 0.55504405 0.5779562 0.15713444 0.10825009 0.3240903 0.46818283 0.5440223 0.5616758 0.5615494 0.34432638 0.2791919 0.18531424 0.5064175 0.37210655 0.29806876 0.42946142 0.33442745 0.3421362 0.25442293 0.26799014 0.18557224 0.12718321 0.20298687 0.06757694 0.47514963 0.47047162 0.29266745 0.2970161 0.20796092 0.005902551 -0.20556079 -0.23814735 0.20340857 0.25468725 0.47278994 0.4207038 0.26760542 0.2917951 0.016949408 0.040412225 -0.16010709 0.36665043 0.21690284 0.123708874 0.10792599 0.18226005 -0.32208312 -0.11314885 0.18735385 0.13910818 0.18708819 0.17736806 0.026108533 0.021140523 0.14278905 0.13816114 -0.22882356 -0.13882986 0.05883062 0.47693288 0.67075384 0.73476183 0.20000169 0.15180057 0.11604749 0.6622424 0.19054124 0.1932309 0.03488315 0.61024404 0.16430321 0.14808479 0.11085652 -0.075124696 0.47573853 0.14233242 0.1382004 -0.0059993565 -0.119354874 -0.2586087 0.2867319 0.3567356 0.16461086 0.13140242 -0.07809047 -0.075993806 -0.16755405 -0.27589962 0.09797454 0.11989983 -0.10914664 -0.11348197 0.0492782 0.08859728 0.07504812 -0.19915155 0.2592004 0.37820998 0.43342942 0.35616374 0.30276254 0.05437942 -0.063858666 0.2624604 0.3932235 0.44646502 0.4404865 0.44091302 -0.010993202 0.25094908 0.35145593 0.41243494 0.5105499 0.502857 0.196581 0.20686987 0.29478392 0.38779995 0.5729139 0.31237033 0.38441187 0.61401105 0.63860166 0.43895686 0.43009824 0.5995786 0.4942581 0.25667235 -0.07436015 0.3006049 0.40523642 0.437284 0.43943298 0.062596396 -0.09602821 0.02961591 0.11288127 0.19045714 0.28786528 0.40408775 0.42767388 0.43306893 0.005971485 0.085436724 0.12989536 0.07633487 0.075018816 0.29198045 0.3477922 0.3652086 0.46665674 0.24884054 0.09717136 0.09741018 0.2090109 0.29646653 0.3135602 0.4690919 0.40066063 0.39296 0.56116545 0.3723915 0.50401247 0.55978465 0.5951756 0.20228563 0.14870974 0.14909473 0.58394605 0.3829713 0.368383 0.2516614 0.22200233 0.338288 0.37046605 0.36003298 0.370484 0.22869682 0.10690195 0.14566635 0.17355913 -0.113483906 0.16422793 0.25311387 0.26815063 0.22077577 0.2692262 0.3412722 0.2570543 0.24766397 0.19261368 0.22717296 -0.10072349 0.13818961 0.14967275 -0.06240187 -0.006757412 0.2582343 0.15079267 0.4118718 0.5588391 0.27625078 0.25883698 0.61208445 0.24110672 0.24466488 0.5586377 0.19659087 0.18748908 0.5421934 0.17066288 0.18735473 0.17072242 -0.114423305 -0.06392771 -0.15091413 -0.029910877 0.09011586 0.3047391 0.26668885 -0.022191674 0.41277993 0.28056097 0.43685275 0.38091 0.39813578 0.37738654 0.4091278 0.474894 0.37324548 0.34055954 0.44588774 0.32772997 0.42892778 0.3939388 0.5252672 0.43264025 0.4131747 0.15774098 0.080518186 -0.08760644 -0.13451198 -0.102145836 0.39389047 0.41919786 0.42169726 -0.056044012 -0.09114371 0.047367927 0.12944236 0.4491875 0.25848967 0.32638347 0.33138022 0.37617135 0.4029671 0.42165124 0.12428632 0.20055908 0.1231491 0.5308576 0.5055358 0.44657803 0.19813077 0.5110267 0.4640273 0.33743724 0.4803654 0.5070309 0.51783895 0.539777 0.23813452 0.21090288 0.16720916 0.14992343 0.2592872 0.5069764 0.37408692 0.36667734 0.2984801 0.4210813 0.31804484 0.3556072 0.1750851 0.24751958 0.3090385 0.39123017 0.12787971 0.30112523 0.43210563 0.21711457 0.2592036 0.21058989 0.063327864 0.11152799 0.17378767 -0.07361289 0.013765782 -0.22623715 -0.04117294 -0.006087703 0.30834866 0.034498706 0.23252118 0.45604298 0.31517175 0.39069623 0.48286444 0.23619094 0.2872922 0.5351701 0.16496336 0.20214896 0.47002602 0.11839159 0.13085538 0.08245236 0.06174145 0.06118119 0.07400251 0.18928157 0.18417758 0.23546278 0.2122695 0.30014512 0.3532 0.10941842 0.33116516 0.3320393 0.34968376 0.33763412 0.32931376 0.37630022 0.25442657 0.32686624 0.2552994 0.25484517 0.3489949 0.34112257 0.29741377 0.1736387 0.34077147 0.19970301 0.39131105 0.24819824 0.14740512 0.07059751 0.0331927 -0.37277657 -0.15873739 0.11413643 0.06461246 0.29288906 0.36444068 0.3968377 0.4159724 0.2739833 0.22258978 0.14093572 0.06481723 0.164559 0.17253822 0.12180625 0.4300418 0.06562369 0.48767436 0.4783048 0.31735325 0.21919319 0.34902674 0.3797331 0.17784455 0.14152716 0.1869333 0.28425348 0.50018716 0.48971295 0.39155442 0.35861325 0.4268319 0.44169027 0.44765633 0.22101189 0.18187772 0.14851126 0.4186694 0.41554445 0.4548584 0.36236316 0.30051816 0.2750753 0.19076248 0.44882482 0.21830186 0.23510422 0.34250927 0.44620928 0.5047503 0.36558497 0.4416564 0.29635054 0.21690078 0.51683366 0.38190895 0.46698838 0.5756914 0.6357111 0.4995352 0.39132437 0.5154524 0.32485816 0.4073575 0.51231337 0.58826125 0.6594917 0.36290824 0.4917241 0.30294222 0.38308063 0.48775804 0.5850086 0.66639733 0.299278 0.34904283 0.49781352 0.57632756 0.16525677 -0.016743526 0.04871471 0.040293336 0.027661445 0.028043378 0.49032247 0.5132731 0.327044 0.307383 0.009692771 -0.005223466 0.5135578 0.28857648 0.29390484 0.005838111 -0.10436452 0.24105771 0.1638743 0.15467437 0.17129786 0.07550465 0.037885986 0.10632712 0.08515992 -0.060413506 -0.021785092 0.029115606 0.062127303 0.13436052 0.019487899 0.06203436 -0.029358974 0.06573639 0.23053613 0.43851006 0.5145817 0.28947642 0.2834399 0.2909449 0.5006001 0.564528 0.33031318 0.30418277 0.43191886 0.5461403 0.5894052 0.31110078 0.28087515 0.45535606 0.5563167 0.58297586 0.27174574 0.22130528 0.23740928 0.20569211 0.17759043 0.16136473 0.16160081 0.058581274 0.1167325 0.22559899 0.07077808 0.18716405 0.3960818 0.28275773 0.30028367 -0.13232648 -0.44509965 0.15208738 0.31420177 0.22205293 0.34905288 0.35906005 0.25743628 0.19308683 0.28856665 0.24496934 0.22507277 0.26967636 0.332945 0.4357006 0.25726128 0.120488904 0.056381505 0.30416596 0.34618357 0.21717983 0.27494746 0.31682742 0.19594182 0.16303362 0.07656955 0.5366468 0.41942227 0.44133615 0.4115442 0.32600212 0.33195448 0.36132473 0.3540789 0.5189013 0.57454216 0.55084646 0.580547 0.5670223 0.4054559 0.4361604 0.43136692 0.42162108 0.37621033 0.4332609 0.4651211 0.5253503 0.15493724 0.1847364 0.11771822 0.5306475 0.54974616 0.32236585 0.31771514 0.1683959 0.17472291 0.2262344 0.2957445 0.57946646 0.522526 0.17051324 0.57739174 0.34006837 0.3776162 0.36350167 0.2499718 0.07599275 0.20629504 0.2684183 0.34173024 0.4007709 0.57657987 0.6115167 0.6095791 0.5316777 0.6140169 0.35853744 0.44314945 0.39804524 0.23798627 0.14300627 0.17645006 0.27197883 0.6439694 0.6877916 0.5550035 0.544332 0.5879171 0.3644835 0.45358798 0.3899439 0.27936324 0.04908336 0.12561053 0.27136862 0.6955371 0.7366238 0.47975934 0.4944783 0.48542306 0.44985706 0.40724677 0.2770102 0.18167794 0.7243422 0.77143514 0.30250186 0.20586585 0.4116397 0.39487714 0.07234019 0.18510701 0.30798393 0.5071623 0.7211343 0.770542 0.26432896 0.070434615 0.10592957 0.45605156 0.5910334 0.6798489 -0.0145351365 0.21618612 0.38814875 0.0675378 0.05574231 0.26887444 0.41414937 0.48149675 0.5051824 0.5223209 0.18389007 -0.08780084 -0.00891199 0.48522407 0.5286811 0.51531637 0.22420672 0.22324666 -0.25139368 -0.22197509 -0.09329943 0.21416558 0.21137446 0.15639855 0.5479725 0.5289893 0.17703034 0.17659858 0.14895709 0.13563685 0.10362002 0.1258745 0.14488828 0.06596745 0.41621652 0.49906486 0.28503698 0.5731412 0.5609559 0.34557283 0.5965985 0.5802585 0.5760242 0.566967 0.5880302 0.19703196 0.13715926 0.3049525 0.50023854 0.55958843 0.13100585 0.08140227 0.0051502213 0.15038024 0.31556326 0.2609266 -0.30329412 -0.058855407 -0.014199607 0.112832054 0.32233214 0.095468715 0.27587226 0.35612544 0.31703594 0.08404392 0.04463472 0.14904915 0.25840196 0.2538833 0.41991282 0.31509417 0.17746957 0.16288678 0.12702934 0.106002256 0.081179634 0.046445444 0.37687987 0.3099079 0.19110759 0.24800701 0.33615637 0.3589156 0.34332433 0.17549384 0.39858586 0.48536682 0.45014793 0.51755935 0.57063204 0.5589167 0.62545824 0.6114154 0.595243 0.58689654 0.52172804 0.53157884 0.4671461 0.36412328 0.44012034 0.4448613 0.4391164 0.20967557 0.10716863 0.043268356 0.080792844 0.20702238 0.39756936 0.44386882 0.4521445 0.47036925 0.508522 0.18731375 0.20362973 0.11370057 0.066001974 0.077668525 0.14754456 0.2381569 0.26077214 0.37839872 0.6169933 0.60242105 0.26256108 0.29191965 0.27950174 0.07036738 0.27031767 0.66835546 0.6400042 0.56765795 0.26930124 0.08849245 -0.006567426 0.6468885 0.28670016 0.32003713 0.37648952 0.57535064 0.6247268 0.6252026 0.6598127 0.64540386 0.27961034 0.3150855 0.6580044 0.7044141 0.5818871 0.6368096 0.28019553 0.3186311 0.75926507 0.49302417 0.5927719 0.30150095 0.39206153 0.7726807 0.7611854 0.38891292 0.31236643 0.31059662 0.34460855 0.351432 0.3171665 0.77638495 0.76796174 0.2847788 0.0054341927 0.60025275 0.7156633 0.76946056 -0.08808553 0.060488544 0.29783592 0.3601064 -0.3054618 0.08125134 0.06434537 0.023643477 0.0027170181 0.4352951 -0.22127041 -0.01536241 -0.2215052 0.123323984 0.19112271 0.13011396 0.01702416 0.10455944 0.019767353 -0.27051097 -0.19520941 -0.01884766 0.17125288 0.4279361 0.5104913 0.11427095 0.17786391 0.34549946 0.06582947 -0.059250236 -0.05685518 0.18809398 0.47405493 -0.084988445 0.47910714 0.5162555 0.4866302 0.2876876 0.13081962 0.48044747 0.48749217 0.52581084 0.5518599 0.56502086 0.5052501 0.52716243 0.56081915 0.5743143 0.5866532 0.3019173 0.5475307 0.5559755 0.5522327 0.56324196 0.54917306 0.5609309 0.28205347 0.4632861 0.53193563 0.5261602 0.50458306 -0.038966473 0.010230087 0.11385549 0.060493447 -0.09541269 0.12157821 0.1950824 -0.050840616 0.16105512 0.357113 0.22479221 0.27979976 0.29149562 0.45681396 0.055551484 0.119018786 0.21531755 0.17001939 0.09650121 0.16139066 0.22379027 0.25667724 0.47995758 0.45362243 0.2907284 0.034802288 0.019928023 0.25445232 0.27737015 0.47190875 0.4606673 0.4084152 0.2550217 0.20462766 0.22151504 0.24015255 0.29818505 0.25653398 0.031173721 0.21711431 0.33668962 0.30330145 0.41143763 0.30067125 0.38834184 0.48020154 0.49636573 0.49782175 0.6159159 0.60727 0.6125709 0.6287136 0.6240976 0.6063198 0.5677613 0.5791463 0.61839545 0.5510395 0.5144466 0.4325745 0.49594468 0.5096194 0.30205068 0.15510315 0.25055197 0.32996082 0.34538788 0.34762833 0.3469013 0.052566614 0.17437497 0.3192901 0.42660484 0.444445 0.48581034 0.53431576 0.2718913 0.2717315 0.36673054 0.4022686 0.4350528 0.48741287 0.58646214 0.6343577 0.2372416 0.2648119 0.67149365 0.63632196 0.486143 0.22706564 0.11599253 0.20819122 0.2574527 0.16929734 0.24344963 0.66873896 0.6742864 0.26346716 0.4395968 0.5337799 0.6674427 0.11798066 0.6682581 0.23732376 0.6687695 0.5807286 0.57257724 0.54904956 0.657171 0.19528747 0.26961362 0.7095984 0.5052372 0.29524595 0.4012715 0.2568516 0.27398413 0.72488856 0.74065185 0.2040154 0.10902408 0.18924369 0.2456132 0.2633084 0.74402964 -0.13742094 -0.4543753 0.21913493 0.25167343 0.1364524 0.010200061 0.6778414 0.73586774 -0.12628947 -0.13030002 -0.3224098 -0.13801374 0.065944 0.42567277 0.44860604 0.46216065 -0.21367317 -0.17115349 0.012500286 0.0042109545 0.4440034 0.47966683 0.48659623 0.42746437 -0.27509993 -0.046994675 -0.10032374 0.0001116693 -0.011734222 -0.25041628 -0.11345409 -0.00905484 -0.008828871 0.10871308 0.44806996 0.45534825 0.42442578 0.3980837 -0.24840757 -0.29445857 -0.25870126 -0.14945945 0.3799631 0.3252342 0.24143648 0.2286947 0.26761025 0.040011548 -0.0053319037 0.1452299 0.24225137 0.17916824 -0.24300545 -0.28689057 0.13105519 0.19589412 0.318874 0.37334538 0.37810153 -0.26816967 0.20405458 0.35739198 0.4574094 0.41362023 0.36988458 -0.25511777 0.22167175 0.40947294 0.43242738 0.45105433 0.10911258 0.3507722 0.