# vtk DataFile Version 2.0
Really cool data
ASCII
DATASET POLYDATA
POINTS 8170 float
31.16035 3.2410462 -32.025845
31.026592 3.1852822 -31.426704
31.0684 3.223517 -30.895054
31.223848 4.0562797 -33.015774
30.94943 3.7130766 -32.224865
30.710909 3.590349 -31.452877
30.833773 3.7703893 -30.671589
31.157919 3.8052678 -30.193878
31.406086 4.828213 -34.14852
31.251825 4.68987 -33.55374
30.894863 4.431559 -32.33692
30.613186 4.3709073 -31.382536
30.75292 4.3150425 -30.6478
31.141714 4.3960347 -30.13201
31.372952 5.276526 -34.17081
31.362967 5.52731 -33.5905
31.089474 5.1526713 -32.238132
30.870579 5.0267 -31.336918
31.00933 5.051606 -30.566778
31.265184 4.917474 -30.020771
31.227255 5.652861 -31.336815
31.132511 6.9544616 -25.872145
31.095407 6.923992 -25.305067
31.181974 6.95276 -24.702103
31.268429 7.128918 -24.261892
31.25901 7.774985 -26.763649
31.048367 7.638548 -26.269688
30.796993 7.5938535 -25.369967
30.940311 7.6281514 -24.670074
31.249706 7.500274 -24.135656
30.931042 8.493687 -26.19594
30.769926 8.394535 -25.470732
30.959349 8.26799 -24.790792
31.235928 8.369894 -24.324636
31.108969 8.9344225 -26.226421
31.072432 9.010435 -25.692396
31.214544 8.8942995 -24.945593
32.04457 3.1128523 -33.114983
31.825462 2.930935 -32.394073
31.563267 2.8884218 -31.578667
31.56501 3.0249493 -30.845625
32.06968 3.266451 -30.259268
31.771832 4.1460977 -34.187965
31.697544 3.6662219 -33.30583
31.336142 3.4962983 -32.625175
31.426176 3.383329 -30.34821
31.539972 3.630066 -30.076275
32.03082 4.721729 -34.86654
31.585566 4.687766 -34.403976
31.898245 5.303801 -34.84272
31.56102 5.4684668 -34.399216
31.47776 5.72634 -33.430035
31.418007 5.6753407 -33.01673
31.797709 5.369523 -29.810045
31.870258 6.215032 -25.403679
31.907967 6.2407904 -24.731312
31.880383 5.9286175 -34.448467
31.774187 6.0678964 -33.4403
31.9562 6.1302114 -32.377937
31.513027 5.884854 -31.431684
31.903128 6.005936 -30.560919
32.05971 5.7240295 -29.992962
31.845888 6.7495794 -26.464806
31.469463 6.521945 -25.271603
31.541576 6.590556 -24.59201
31.676268 6.933511 -24.067284
32.111473 7.8418293 -27.373135
31.652721 7.5252657 -23.92772
32.274445 8.763324 -27.904577
31.731625 8.500666 -27.295248
31.370737 8.496869 -24.388609
31.637722 8.191686 -24.073097
31.883337 9.156406 -27.12376
31.875702 9.410847 -26.38351
31.509014 9.258677 -25.5135
31.58933 8.941067 -24.752884
31.898788 8.716829 -24.279802
33.04614 2.4181592 -32.369884
33.069996 2.428434 -31.888256
32.566048 2.7906773 -33.196365
32.70137 2.5429437 -32.550816
32.546448 2.5854726 -31.614244
32.384308 2.9058638 -30.655117
33.00856 3.172951 -29.93564
32.74045 3.9940875 -34.800903
32.573418 3.6651864 -34.35904
32.764507 4.5328097 -35.126205
32.619003 5.479249 -35.157555
32.286007 5.6311193 -29.6922
32.93222 5.8602724 -26.251898
33.2165 5.4694457 -25.753366
33.10341 5.716199 -24.52425
33.10239 6.0478663 -24.169014
32.641624 5.906497 -34.95393
32.65159 6.323098 -34.373306
32.336266 6.4209933 -33.519127
32.285713 6.4072666 -32.669304
33.076538 7.050738 -27.948784
32.623295 6.5927396 -23.943983
33.007797 6.6085463 -33.984043
32.93442 6.573186 -33.671577
32.79284 6.600697 -32.877216
33.156986 6.838591 -31.453552
32.40351 7.410101 -23.764528
32.588657 8.092101 -28.083723
32.401653 8.1711 -23.940424
32.89602 9.216011 -28.100103
32.46722 9.546091 -27.356432
32.319828 9.501499 -25.567808
32.60498 9.200855 -24.811909
32.107933 8.760611 -24.315897
32.81918 9.73903 -27.361322
32.61227 9.702213 -26.495455
32.80371 9.588767 -25.64132
33.258095 2.450443 -32.911346
33.48059 2.3922355 -32.41902
33.669777 2.4138777 -31.899275
33.346577 3.062548 -33.975376
33.464035 2.5001383 -33.20013
33.2678 2.4960093 -31.75769
33.586853 2.7716699 -30.524363
33.948704 2.9941528 -29.684021
33.39939 4.0683103 -35.04043
33.31329 3.5669298 -34.587635
34.265423 4.2028766 -27.084211
33.899982 5.0357556 -35.520493
33.52203 4.7282324 -35.39673
33.661236 5.060487 -27.26118
34.14599 4.6436906 -26.361202
34.2017 4.731661 -25.958498
33.969646 5.205361 -24.837322
33.751247 5.104698 -35.513504
33.513184 5.4950805 -35.414345
33.566086 5.495804 -24.562899
33.580692 5.893809 -24.069077
33.373108 6.0428276 -35.076786
33.19064 6.460722 -34.43366
33.773453 6.4382153 -29.304922
33.60567 6.711774 -23.738752
33.862865 6.667447 -34.0097
33.479004 6.6497884 -33.611767
33.39233 6.7905836 -32.270622
33.332832 6.8951836 -31.230453
33.295326 6.8863006 -31.02713
33.43213 7.338555 -23.799236
33.8761 8.095872 -28.698048
33.358624 8.635488 -28.451004
33.303715 8.351728 -24.147554
33.40848 9.274489 -28.132729
33.866768 9.422686 -25.861204
33.469467 8.797939 -24.569176
33.42161 9.65038 -27.930542
33.662956 9.781456 -27.289776
33.428005 9.788982 -26.545835
35.31537 -7.82639 -21.089312
35.374004 -8.183653 -20.275532
35.397503 -8.401294 -19.486778
35.4145 -8.160004 -18.941994
35.344776 -7.0502315 -21.818586
35.19966 -7.2968907 -21.351103
35.202568 -7.452567 -20.543045
35.375046 -7.638808 -19.458605
35.422127 -7.8593006 -18.981909
35.345222 -6.7782865 -21.826088
35.205215 -6.6587543 -21.375784
35.195454 -6.59127 -20.768238
35.339703 -6.8707085 -19.936022
35.33158 -6.1311097 -21.198742
35.348457 -6.1098766 -20.722023
34.13151 2.3818355 -32.597168
34.20809 3.1011279 -33.95103
34.246586 2.6921616 -33.382713
34.03835 2.5306818 -31.759195
34.65528 2.792318 -30.241962
34.503872 2.704342 -30.049505
34.789516 3.0167854 -29.15891
34.06583 3.865798 -34.90737
34.74393 4.0072618 -34.675556
34.707546 3.7407455 -27.81987
34.641426 4.0324306 -26.749155
34.4658 4.697597 -35.32739
34.6293 4.606353 -25.609573
34.55013 5.059706 -24.804695
34.144222 5.238855 -35.51489
34.5042 5.483799 -35.408882
34.351757 5.808719 -23.99593
34.255257 6.115525 -35.094513
34.36731 6.4294214 -23.76524
34.219307 6.677437 -33.453648
34.281174 6.7916746 -32.749775
34.651905 7.3196325 -31.21149
34.28399 7.656698 -28.668941
34.266823 7.161932 -23.823269
34.44857 8.606401 -28.514723
34.24724 8.342951 -24.511765
34.383793 9.538706 -27.251852
34.280254 9.302404 -25.814047
34.264866 8.790901 -24.907871
34.238014 9.6500635 -27.204147
34.217793 9.636424 -26.767178
36.244816 -9.939657 -19.272118
36.108128 -9.671864 -18.75939
36.00449 -9.362361 -20.124846
35.72296 -9.227386 -19.369665
35.926838 -9.295029 -18.620197
36.149113 -9.129596 -18.080334
36.012794 -7.978496 -21.867197
35.660385 -8.164054 -21.175602
35.522648 -8.551549 -20.128084
35.563118 -8.550982 -18.722622
35.95411 -8.598745 -18.134964
35.7805 -7.3221827 -22.122175
35.448853 -7.5338016 -21.67748
35.698093 -7.796851 -18.570272
36.16284 -7.68447 -18.161041
35.693493 -6.654807 -22.161968
35.554104 -6.7475266 -19.643564
35.989006 -6.894784 -18.808382
35.934402 -5.645893 -22.177382
35.679726 -5.655536 -21.470247
35.610897 -5.832446 -20.633064
35.86749 -5.870554 -20.002674
36.259834 -4.933346 -22.093838
36.152122 -5.0017767 -21.647173
36.070473 -5.161027 -20.902554
35.093456 3.1507695 -33.52
35.498837 2.7129576 -32.824825
34.985687 2.623051 -31.847809
35.12783 3.1614242 -28.756516
35.580704 3.472501 -27.230062
35.033493 4.046145 -34.489723
35.27037 3.594319 -27.513351
35.31968 3.77945 -26.500748
35.21729 4.0316143 -26.134653
34.8451 4.8480663 -35.231304
35.492718 4.536305 -25.46031
35.231373 5.2633214 -24.600185
34.956253 5.413209 -35.326378
35.39675 5.128846 -34.655766
35.024982 5.3760924 -24.367962
35.337997 5.7718463 -24.216251
34.80663 6.0857368 -34.915886
35.114017 6.4805994 -23.886612
35.272755 6.9158854 -31.976643
35.65152 7.594287 -24.456629
35.34498 7.3602166 -24.11753
35.67855 7.7704496 -29.308743
35.159008 8.177628 -24.664175
35.553894 8.864947 -27.205421
37.143272 -11.087601 -20.401827
36.90752 -10.919363 -19.580193
37.14293 -10.881203 -19.022114
37.45398 -11.187442 -5.2075024
37.40338 -11.143649 -4.701132
37.04497 -10.514093 -20.87257
36.734 -10.460255 -20.340052
36.56943 -10.390902 -19.581154
36.76352 -10.13467 -18.602505
36.717484 -9.913961 -18.162218
37.372658 -10.762298 -5.1380577
37.39751 -10.486102 -4.6932473
36.670002 -9.012318 -21.038094
36.55468 -9.407946 -17.985481
37.460144 -10.092279 -5.005887
36.591484 -8.05127 -21.970675
36.97087 -8.586118 -21.434168
36.45926 -8.363062 -17.726797
36.51732 -7.489173 -22.29611
36.395348 -7.981839 -17.811094
37.252045 -7.4715886 -12.22718
37.24808 -7.272369 -11.502557
37.36286 -7.108899 -11.064636
36.54553 -6.36319 -22.83919
36.84658 -6.8297215 -18.183918
37.208767 -6.579851 -12.2926235
37.21368 -6.6030326 -11.6761675
37.406647 -6.7326646 -11.056428
36.740513 -5.5155897 -23.00909
36.527336 -5.755585 -19.522852
36.52908 -6.1097107 -19.066685
37.315113 -6.1443734 -12.249201
37.31591 -6.1383977 -11.853108
37.051964 -4.6852245 -22.908266
36.69134 -4.73147 -22.553001
36.73003 -4.7114635 -20.527397
36.559277 -5.243466 -19.87543
37.26716 -4.0313425 -21.997301
36.892803 -4.2527547 -21.474709
37.34719 -0.26243523 -33.827705
37.2519 0.6378123 -34.182556
37.178566 0.6275287 -33.743984
37.412216 0.67246896 -32.527878
37.293427 1.7789682 -34.011818
37.298607 1.3565915 -33.637306
37.182415 2.010931 -32.791615
36.585793 2.7341897 -32.51358
36.435486 2.6138077 -31.310999
36.516705 2.6304462 -30.027683
36.488274 2.9768133 -28.532545
36.45577 3.9834828 -33.50723
36.795185 3.5017514 -27.450209
36.032375 3.7241907 -26.423717
36.233337 4.1034236 -25.940868
36.1634 4.6671705 -33.38004
36.59303 4.6595454 -25.6121
36.74012 6.07522 -24.513414
36.19214 5.9470925 -24.287922
36.643787 6.3885083 -32.487244
36.18373 6.359188 -24.227308
36.838223 7.4538727 -31.068798
35.8687 7.576361 -24.563976
36.026302 7.190383 -24.279509
36.945312 8.254604 -29.501856
36.93051 8.522997 -28.488436
36.693314 8.242248 -25.588139
37.479073 9.905062 -32.044304
37.284775 9.144124 -27.02078
38.106026 -27.795866 -9.187373
38.204857 -27.942425 -8.608525
38.28013 -27.880568 -7.99647
38.261074 -27.274687 -9.847236
38.009285 -27.35591 -9.327555
37.93677 -27.433186 -8.689378
38.184334 -27.358366 -7.81789
38.209152 -26.78932 -9.952576
37.95784 -26.58444 -9.361701
37.902283 -26.693928 -8.524075
38.17436 -26.674229 -7.775973
38.213406 -25.896097 -9.452213
38.251316 -25.620956 -8.581158
[...]
POINT_DATA 8170
SCALARS features_00 float 1
LOOKUP_TABLE default
0.7177416 0.7613561 0.7732567 0.68252516 0.74240434 0.8112304 0.8268509 0.81640875 0.7565126 0.7139388 0.7356047 0.8493073 0.83899844 0.8198236 0.7760741 0.7231011 0.67918944 0.76672614 0.75757575 0.75848013 0.6406727 0.8168888 0.8248058 0.84056246 0.85865605 0.8540727 0.9038593 0.91379964 0.89103645 0.87431836 0.9318121 0.9285265 0.88742226 0.8583404 0.9020437 0.8901186 0.8539571 0.6013839 0.6136346 0.6631 0.6888676 0.622977 0.72309405 0.6458685 0.6740413 0.7583397 0.7572399 0.8397733 0.7756078 0.8690584 0.8080858 0.69944763 0.6590681 0.64904475 0.6503619 0.7016288 0.81136966 0.67271125 0.5143924 0.5733882 0.5564152 0.57697713 0.70667267 0.7422919 0.78085864 0.8212353 0.69437003 0.8503289 0.7262964 0.7903899 0.8500914 0.8377023 0.8175353 0.82313585 0.83855355 0.8198564 0.79482764 0.45780152 0.42735574 0.5530745 0.5026657 0.48986244 0.5119184 0.35578698 0.7522197 0.70135033 0.8077272 0.9019899 0.5300518 0.41976458 0.40457445 0.56075644 0.63086784 0.89093536 0.74044824 0.60113007 0.4915817 0.49181572 0.7272787 0.59116447 0.54105693 0.44842267 0.31339103 0.80519587 0.6307175 0.78302056 0.71352184 0.7729963 0.76388264 0.72375065 0.77495384 0.7427392 0.74255157 0.70634866 0.46361083 0.41976738 0.36899987 0.57794756 0.46464616 0.39830345 0.30562404 0.17971292 0.7071073 0.6629476 0.28311956 0.7430969 0.7509606 0.24915048 0.33246693 0.36113027 0.46695232 0.7604562 0.80976474 0.51876533 0.59764785 0.85611194 0.7142862 -0.02521351 0.65964746 0.5603849 0.4768185 0.33270827 0.27985352 0.27528992 0.7031601 0.48516828 0.6297201 0.67801297 0.68804145 0.6138416 0.63565326 0.7021047 0.6751789 0.66446745 0.63157976 0.59742475 0.5819799 0.58615637 0.6546351 0.65468776 0.636587 0.5881572 0.5807495 0.66612756 0.6651225 0.6436653 0.6005182 0.64571226 0.619241 0.3851416 0.52784115 0.4355111 0.32920486 0.15829335 0.16413224 0.07996735 0.6435132 0.57698965 0.21139768 0.30681747 0.6681408 0.3884766 0.46750763 0.73482466 0.7141066 0.5767764 0.7874595 0.60748667 0.39153385 0.27903455 0.12204933 0.2988127 0.6106123 0.49288416 0.5413017 0.60292333 0.5705591 0.5375302 0.6162734 0.59677 0.48240227 0.50209504 0.51985204 0.5500209 0.5448476 0.53890884 0.5067369 0.581913 0.57071364 0.5844367 0.5690117 0.58470494 0.62297016 0.5646228 0.5348537 0.65780675 0.5686493 0.5088531 0.6373898 0.6147601 0.5823818 0.5227768 0.5211245 0.52137625 0.51252806 0.42208856 0.26346946 0.2543879 0.080088355 0.24340177 0.5323802 0.22551638 0.31716743 0.347684 0.65014136 0.42401272 0.50814867 0.67905796 0.579792 0.52764213 0.56044817 0.75024235 0.5836924 0.06828811 0.46974656 0.5301174 -0.23088858 0.43795586 0.4104411 0.48854873 0.4777882 0.40788177 0.68361986 0.7151765 0.4259678 0.48865348 0.47639984 0.4111815 0.41201216 0.692279 0.7290906 0.39345646 0.4768951 0.7043031 0.39743972 0.3134115 0.538466 0.45506853 0.5341232 0.7007196 0.7260029 0.7352581 0.61260426 0.43836594 0.72295463 0.74606353 0.74356973 0.633548 0.40258068 0.40948188 0.71270084 0.73795056 0.37601393 0.45606777 0.38408735 0.38905776 0.28435656 0.36427364 0.5354131 0.5046843 0.5005276 0.44242263 0.43470955 0.47016546 0.2474012 -0.16363217 0.004537508 0.07125244 0.091740124 0.32626367 0.18565841 0.33265233 0.39359683 0.35151953 0.44518277 0.49261984 0.53838193 -0.085581794 0.55189466 -0.16087513 0.450648 0.5086395 -0.28064385 -0.19210306 0.3438016 0.33524686 -0.06959157 0.75400484 0.7515478 0.7323169 0.6781175 0.7418784 0.76756656 0.7475144 0.6405177 0.67887866 0.7447939 0.7530962 0.5843662 0.55735373 0.6301809 0.5541322 0.51092947 0.596048 0.5924092 0.557143 0.51391256 0.5894582 0.58650535 0.3915689 0.45679182 0.48378724 0.40677845 0.5863074 0.5746354 0.61806226 0.6592305 0.64802134 0.39428687 0.46305057 0.3424533 0.20245159 0.5637228 0.5522554 0.62838554 0.64644325 0.7190653 0.71814394 0.3644914 0.3619369 0.2082947 0.5984902 0.672611 0.7500553 0.74915963 0.17091003 0.34515935 0.54480445 0.67284507 0.75203454 0.74852 0.6687293 0.65438795 0.60762304 0.3194161 0.37528434 0.34370416 0.55742806 0.68025064 0.68525755 0.73940384 0.71857643 0.6689905 0.5847 0.38180897 0.35605937 0.4572617 0.3582289 0.36172527 0.60852194 0.70152485 0.71543956 0.7210157 0.76827145 0.7202933 0.6853155 0.5837319 0.4185694 0.49078733 0.6027507 0.74340177 0.73272693 0.6426096 0.627174 0.53343606 0.2657397 0.27693176 0.2504589 0.4714899 0.55676633 0.6635743 0.7157057 0.7281803 0.23966709 0.22623725 0.58926797 0.30749884 0.28826126 0.07072845 0.009846479 0.2056373 0.21033068 0.2721147 0.3620594 0.15891778 -0.0022975802 0.08006849 0.15675052 0.52407765 0.49493682 0.39175087 0.5211184 0.5349895 0.5267313 0.40570652 0.35668322 0.50243473 0.51274866 0.26561475 0.45456707 0.45611316 0.16293877 -0.1346311 0.10096748 0.40887648 0.41820696 0.38026363 0.39908332 0.41638932 0.095589325 -0.042840645 0.38966674 0.0044221953 -0.07894488 0.19196545 -0.20736933 0.39542496 0.17755918 -0.10883644 0.4455273 0.40245163 0.06112809 -0.1277735 -0.098217696 0.35085252 0.25823197 0.36962283 0.34058505 0.4864335 0.4632086 0.4613059 0.57796097 0.57536197 0.52059 0.6517439 0.72704124 0.7164161 0.69807804 0.6771061 0.6324269 0.71539843 0.6924001 0.51671445 0.5955254 0.7043249 0.49801725 0.5128149 0.5015836 0.58278805 0.4962945 0.46828908 0.42034355 0.3975495 0.424457 0.42354298 0.36488658 0.3035376 0.3563924 0.31059432 0.55766714 0.5482843 0.4510526 0.32611036 0.25670734 0.27818325 0.45973936 0.3812192 0.31473416 0.28906175 0.34415954 0.37437898 0.2812611 0.211359 0.22841012 0.30627137 0.33602017 0.28603977 0.3937685 0.32403046 0.34215784 0.25448337 0.25895917 0.4955107 0.5120405 0.41819406 0.34684676 0.26306534 0.054209393 0.1532668 0.23141608 0.32686466 0.46213692 0.5176823 0.068605505 0.46492684 0.501824 0.5428409 0.25592604 0.36126018 0.28683925 0.0072405674 0.39915335 0.54305327 0.5248367 0.42392394 0.5582661 0.5233861 0.274809 0.15805775 -0.13181804 -0.17763299 -0.15336688 0.43349636 0.49309286 0.49993306 0.449367 0.46277064 0.6147841 0.5412556 0.12300106 0.25493032 0.09385119 -0.18861237 -0.099381186 0.50824636 0.63169587 0.5564145 0.5193747 0.48810744 0.4466746 -0.08398232 -0.12138803 0.072373845 0.101187095 0.37090448 0.5281444 0.48177284 0.607371 0.4997083 0.64773273 0.5926031 0.5287904 0.4929744 0.14884534 0.56750596 0.5208315 0.6546236 0.6678251 0.7137875 0.45819777 0.0970232 0.6847238 0.4148243 0.70022935 0.47776985 0.27873173 0.422603 0.45141178 0.65744066 0.67724633 0.44430763 0.22361746 0.2760287 0.12142888 0.055834346 0.4811694 0.554883 0.57261336 0.61534774 0.28251317 0.13008323 0.048033535 0.12105485 0.4619972 0.41998106 0.4048802 0.23537382 0.28597078 -0.0018028393 0.05370114 0.10515616 0.094979644 0.0778963 0.4926247 0.4862424 0.44175196 0.38868797 0.25243112 0.17953493 0.25842318 0.30323267 0.29621512 0.079959124 0.004072875 0.51267934 0.29866 0.17135613 0.28078854 0.06094289 0.022292959 0.20920768 0.1270928 -0.06445493 0.37278754 -0.12078576 0.3183076 -0.20874995 -0.372348 0.40535384 0.32786468 -0.057738565 0.4570973 0.42794564 0.0452848 0.47811383 0.41835546 0.3454613 0.29927745 0.21729675 0.33960626 0.24996749 0.26459503 0.42593777 0.24803258 0.4482311 0.45021904 0.27449176 0.27504712 0.4030524 0.16590412 0.17796905 0.33701986 0.32908237 0.557678 0.49135637 0.2893088 0.24003959 0.33021346 0.73449135 0.64265645 0.35844877 0.307478 0.287498 0.28007534 0.29266804 0.7272871 0.6908817 0.64013886 0.44631934 0.36324853 0.31115246 0.2838418 0.7098449 0.5674495 0.61026824 0.63947946 0.45891988 0.45761493 0.64142466 0.62469083 0.5014626 0.6058233 0.4858469 0.5039118 0.4795375 0.60392714 0.4741065 0.33267868 0.4844582 0.19789772 0.13076748 0.34988922 0.30809325 0.20558383 0.13847414 0.3162366 0.27245057 0.23111103 0.17840467 0.56379557 0.524769 0.46784532 0.3906488 0.23982155 0.58009255 0.5908165 0.57635796 0.50507915 0.32140547 0.22299206 0.13421403 0.25879705 0.25386667 0.26472676 0.588164 0.5782901 0.29648328 0.23718166 0.2883959 0.24823114 0.21296456 0.51615787 0.5385126 0.22835392 0.22804338 0.09350868 0.5791907 0.6209308 0.41115886 0.3495435 0.27306134 0.11993736 0.14738631 0.17733684 0.077514604 0.13048752 0.13726008 0.551733 0.61000973 -0.0028748661 0.09796615 -8.235406e-05 0.09580111 0.3282378 0.22436926 0.22084825 0.08396299 -0.048971128 0.32927662 0.52088857 -0.078872636 0.09623584 -0.0008997619 0.111221194 0.041097857 0.3386839 0.065605745 -0.15050638 -0.1281159 0.38860035 0.18276072 -0.16315883 -0.15018228 0.43598932 0.07297683 -0.29135367 0.31305206 0.14890592 0.4125509 -0.08957174 -0.020527815 -0.2791021 -0.09871125 0.062276445 0.40274823 0.54866433 0.47266132 0.43884015 0.40499365 -0.16209601 -0.14027007 -0.036615152 0.42585766 0.37276256 0.42653427 0.4399203 0.6194109 0.5883632 0.018696483 0.13878588 0.17050219 0.31459036 0.35318258 0.60101813 0.35109925 0.26187307 0.42369828 0.3400606 0.59474355 0.6019298 0.46175027 0.5487462 0.5652721 0.5204086 -0.0981558 0.53797555 0.675107 0.6757456 0.6589285 0.6375437 0.17641032 0.19868395 0.32807487 0.35505262 0.37374997 0.4470119 0.45257205 0.7337413 0.72332484 0.16707939 0.12923643 0.17180687 0.37350082 0.37041694 0.283358 0.12388633 0.17021674 0.02990812 0.09692452 0.18104003 0.26362664 0.29026675 0.46983448 0.26498696 0.18292847 0.22814888 -0.0860738 0.054771185 0.16991097 0.23181513 0.4823569 0.06418007 0.20809904 0.264771 0.1572074 -0.026083516 -0.020231871 0.09658623 0.43938524 0.048430055 -0.031074652 0.13397549 0.24367392 0.4553007 0.55861336 0.3322097 -0.1543468 -0.36956558 0.055644985 -0.013508866 0.27255535 0.42206973 0.5579845 0.58662 0.34723622 -0.32999343 0.033962473 -0.017311968 0.34496158 0.47686937 0.5755329 0.60285556 0.40804482 -0.014525808 0.0013694018 0.45970953 0.07458383 0.50867337 0.22114982 0.5093699 0.24728876 0.41419443 0.24151209 0.45305634 0.2044775 0.41520548 0.29413256 0.33396468 0.6862546 0.32621747 0.7363025 0.28756684 0.31662202 0.3321616 0.76248384 0.7593273 0.2987367 0.28655046 0.3189861 0.7363161 0.7114071 0.64843595 0.47182286 0.39822435 0.37529802 0.3839088 0.46287018 0.43396917 0.43429202 0.39136854 0.47249395 0.47697634 0.3848454 0.46001217 0.444804 0.40562505 0.32071894 0.11602616 0.049692225 0.1132721 0.16934997 0.04031661 0.29953688 0.19560885 0.19800547 0.18478599 0.5277564 0.5033007 0.41175467 0.30626273 0.17960049 0.055041246 0.10258364 0.24072698 0.14007404 0.110543706 0.12250236 0.20789582 0.18796346 0.18562512 0.5611058 0.5619956 0.26078928 0.525751 0.6535996 0.42555794 0.5442995 0.56071323 0.65006655 0.6659969 0.35655066 0.091203295 0.057549015 -0.08739266 0.36831307 0.62179995 0.6621175 0.10115431 0.033798195 0.5787348 0.5644077 0.047010496 -0.005449012 -0.14064738 -0.111803785 0.07108341 0.013649121 -0.18746856 -0.18079478 0.2989162 0.05987811 -0.17836022 0.3503889 -0.013618477 0.020324605 0.3474602 -0.101584606 -0.08998912 0.12270478 0.043390438 0.33471 0.4005273 0.2528211 0.308496 0.3023283 0.48920047 0.23382926 -0.16136003 0.23050906 0.5070432 0.25052935 0.2771395 0.5094695 0.37464023 0.35897017 0.19254513 0.15768674 0.09438187 0.48674256 0.6094583 0.4800755 0.6805054 0.5786525 0.3541379 0.22689676 0.118286595 -0.30002087 0.059102364 0.13735926 0.16117078 0.4931236 0.7033428 0.7452926 0.7328701 0.68896616 0.7474952 0.7035013 0.45385307 0.10518418 0.10333706 0.049483947 -0.24075222 0.31074917 0.71919465 0.74735236 0.75040174 0.70303905 0.049212728 0.07965019 0.29916582 -0.17308451 0.08346037 0.10332845 0.26287663 0.3943022 -0.13817944 0.10589167 0.12910247 0.3675085 0.25673285 -0.090083756 -0.14385575 0.47429824 -0.19818878 -0.36933666 -0.13473937 0.5881604 0.53756034 0.30711088 0.00609906 0.33448812 0.6045167 0.58723974 0.5675498 0.3907458 0.056972876 0.55102044 0.5857516 0.5699266 0.5209266 0.5251312 0.46112725 0.17452464 0.4308115 0.31695008 0.23714371 0.3476966 0.16793078 0.19351992 0.51209265 0.18550684 0.49022734 0.41861352 0.6125236 0.32122996 0.70195794 0.34303063 0.33533388 0.70560575 0.7380702 0.34716123 0.34780467 0.6929096 0.61675715 0.5074967 0.3209476 0.3477547 0.49643427 0.5046496 0.33267623 0.30341083 0.37704372 0.46162546 0.4955215 0.37925237 0.29664147 0.45383877 0.4565515 0.43099654 0.36579317 0.41785002 0.15372808 0.4081347 0.429968 0.54399633 0.57791567 0.24822164 -0.069668025 0.12021134 0.53979474 0.59052587 0.07472608 0.12402508 0.20425484 0.31662208 0.52670157 0.58694017 0.041076146 0.048429653 0.2062791 0.3016544 0.25852352 0.056059122 0.023991395 0.18312795 0.1792593 0.49075824 0.3864454 0.34190434 0.031755358 -0.0012123957 0.07133491 0.1551344 0.47869566 -0.054459125 -0.07879548 -0.104747385 -0.009130195 0.18583013 0.3436061 0.4173627 0.2144387 -0.15251935 0.5194286 0.62151694 0.68694305 0.7079998 0.20215605 -0.1583748 0.691932 0.32371205 0.67245907 0.5712577 0.50464594 0.37003508 0.34495538 0.37139162 0.313632 0.2716629 0.05689957 0.27872375 0.17912401 0.1710641 0.023208497 0.28895473 -0.14570244 -0.055950653 0.037628494 0.33615595 -0.24198458 0.32080573 0.3840775 0.19581857 -0.28185022 0.27725846 0.2913152 0.116328225 0.2510955 0.29122394 0.45591322 0.3786719 0.23080939 -0.24817821 0.02566199 0.36404273 0.7166325 0.6543999 0.50029236 0.40406513 0.3186768 0.22378927 0.09018491 0.05308523 -0.11698513 0.5301458 0.43418795 0.8001177 0.73513937 0.60141397 0.0003543049 0.0127452025 0.0048420797 0.52283454 0.71122956 0.62773144 0.80912673 0.77389324 -0.021007523 0.7025585 0.7355766 0.7388516 0.81760716 0.77984273 0.7587779 0.2088114 0.17931098 0.7305685 0.18192682 0.20324343 0.118401304 0.2632617 0.120694056 0.50276285 0.24685892 0.5411334 0.53592014 0.37373716 0.3206536 0.33145633 0.5077554 0.5323535 0.39041907 0.09128933 0.4227594 0.19652346 -0.00017745793 0.14683898 0.13819695 0.25813758 0.06528093 0.15975891 0.0867713 0.42343578 0.32816356 0.29896626 0.11213179 0.41634214 0.45215833 0.41418517 0.5357208 0.6142261 0.31517872 0.67421067 0.6386732 0.34162766 0.32115513 0.68605745 0.62932265 0.34906098 0.35385597 0.6169863 0.5691785 0.60023713 0.616513 0.58405614 0.5128638 0.5362735 0.50064594 0.50043344 0.4748686 0.40549657 0.4645778 0.39772478 0.3024066 0.38653725 0.2558303 -0.00031656027 0.5806328 0.58316994 0.052315205 0.60722756 0.59796286 0.13585214 0.14120767 0.1008382 0.57987225 0.5803956 0.09204194 0.38043326 -0.009962175 0.06358308 0.041704215 0.27944487 0.34719104 0.3910988 0.11688299 0.19853708 0.0070560277 0.27650604 0.20883173 0.03051439 -0.18856113 -0.20206642 0.70056486 0.2468242 0.1776139 -0.5012643 0.14322396 0.6126368 0.30045646 0.3498729 0.36380234 0.33896926 0.45510224 0.47269005 0.30748862 0.36810565 0.2307078 0.3702935 0.43150002 0.33304006 0.2776932 0.23001447 0.1402333 -0.21325257 0.25489363 0.13154534 0.18222085 0.27494633 0.23329179 0.13829309 0.17083894 0.26012674 0.18265744 0.26075858 0.26939365 0.25886667 0.22053912 0.30333626 0.23409592 0.25081193 0.26499254 0.11022444 0.24299404 -0.06290307 0.23896542 0.46410394 0.4097726 0.36072886 0.19605678 0.30861595 0.26103306 0.74884623 0.63247293 0.5007868 0.009619042 0.4509849 0.36673775 0.82669663 0.78800833 -0.0029956512 0.022099523 0.41974568 0.6246871 0.6743386 0.6558632 0.8597189 -0.049392566 -0.01637151 0.0758253 0.708274 0.8494122 0.80496013 0.10288506 0.74036705 0.7176813 0.10866803 0.4296985 0.07716598 0.25273797 0.03865868 -0.02155149 0.34348258 0.08260861 0.4453904 0.4352704 0.47463834 0.29357645 0.20885484 0.35922763 0.44563603 0.47856593 -0.2022231 -0.029250994 0.037897214 -0.32884377 0.08071741 0.4570495 0.46760786 -0.09336489 -0.17214724 0.08344602 0.09470661 0.19810411 0.11473545 0.26681733 0.294611 0.22025059 0.49483824 0.2976208 0.45187628 0.62823296 0.28921512 0.5317805 0.6432796 0.6955949 0.2755924 0.50665325 0.6223295 0.6771749 0.35205716 0.42599374 0.47228026 0.50935125 0.23054458 0.40215206 0.30638456 0.6095574 0.4773618 0.6395084 0.59619427 0.6189461 0.59860814 0.5873595 0.6161301 0.62419033 0.56053436 0.52294725 0.46187222 0.530765 0.4931417 0.44789883 0.47085994 0.43468106 0.34149563 0.30738813 0.23204572 0.24465683 0.4299279 0.29429245 0.1623254 0.15487559 0.501397 0.5175346 0.2846177 0.24752456 0.25379837 0.10651046 0.5652878 0.18811741 0.23342092 0.5368332 0.15631425 0.14801143 0.1360724 0.4167183 0.1803835 0.16662845 0.15517163 0.12178958 0.096327506 0.18266423 0.27339074 0.22901094 0.20575798 -0.027711334 0.056738652 0.16847038 0.2707823 0.26217693 0.24064058 0.17905328 0.27058488 0.28325102 0.27981287 0.22894418 0.2614851 0.5778897 0.18115705 0.57884026 0.18188705 0.25024498 0.29348618 0.2923773 0.19890384 0.4805833 0.22185275 0.072788194 0.3338242 0.09508998 0.16350444 0.185177 0.14238955 -0.09340052 0.3279057 0.1368987 0.18955502 0.30655634 0.2846684 0.18739131 0.20701286 0.21837431 0.09954575 0.015660755 0.22120367 0.21656409 -0.10572459 0.22937053 0.4216199 0.34907266 0.28717417 0.7917001 0.74176145 0.6417023 0.51278424 0.3738282 0.4851126 0.83017755 0.06566187 0.8789289 -0.07022956 0.00044463575 0.8709612 0.030064508 0.010796547 0.8223144 0.7680892 0.52684927 0.42066628 -0.0980858 -0.111875124 0.085358486 0.20633303 -0.26218826 0.4064679 0.3986997 0.41444898 -0.3077385 0.107314266 0.36996236 0.37518132 0.40574878 -0.15984713 -0.07996507 0.39065138 0.3795519 0.37631214 -0.21684128 -0.01524362 0.41582316 0.3963219 -0.064839646 -0.015266746 0.05250465 0.39590585 0.43199614 0.45448655 -0.3685239 0.056993216 0.44149262 0.48428947 0.46584713 0.23372945 0.32020897 0.40105087 0.50607574 0.095249556 -0.444403 0.5337511 0.6402595 -0.14222221 -0.3580987 0.71539044 0.062082596 -0.17262821 0.7453973 0.29922646 0.22602506 -0.18604419 0.6434587 0.7238351 0.43521827 0.6019771 0.36365443 0.35846743 0.1294875 0.46913028 0.061329104 0.7721563 0.6867888 0.6393682 0.60460186 0.5951867 0.7424298 0.698547 0.6644695 0.6210593 0.614203 0.57414895 0.5202301 0.58787245 0.61363214 0.49540353 0.52976257 0.3914586 0.42436236 0.34694648 0.045042306 -0.27712262 -0.13702145 -0.5206545 0.13777232 -0.032356337 0.39130908 0.33540425 0.26199472 -0.26688075 0.3830846 0.27065843 0.3186066 0.48795852 0.17573492 0.17826858 0.17311174 0.1677586 0.22140624 0.37821084 0.18259779 0.1771801 0.17124327 0.16977568 0.1699789 0.11845542 0.25798744 0.3967788 0.17919217 0.1851121 0.18442827 0.18664135 0.21630216 0.05519167 0.23512754 0.2371715 0.041142676 0.23622632 0.24089599 0.13412245 0.036625274 0.36343443 0.13521829 0.14954928 0.2638165 0.113533564 0.1287022 0.20235956 0.3409983 0.18837334 0.08156894 -0.07522885 0.4035827 0.3252247 -0.11312988 0.4233834 -0.031168338 0.35822073 0.014838845 0.25213122 0.12362757 0.18909213 0.13809277 0.22687024 0.20320754 -0.12966585 0.24118713 0.30594808 0.007250961 -0.15815946 0.2726464 0.24710763 0.6865597 0.5942532 0.43727267 -0.19373116 -0.14175364 0.14361775 0.8275794 0.75179195 0.62689495 0.03872949 -0.0075484514 0.87266266 0.8140304 -0.08262561 0.8199067 0.7924884 -0.05551223 0.7408408 0.30244052 0.0052293763 0.09832469 0.19519663 0.32041404 0.22853866 -0.40216532 0.38701433 0.27967924 -0.3989992 0.2988395 0.3810779 0.40587088 0.28958258 0.24451672 0.1150672 -0.14789346 -0.14647323 0.17694992 0.25118807 0.33830988 0.42071116 0.4294914 -0.44316334 0.3490275 0.3836643 -0.31519178 0.34292057 -0.030104488 0.3735577 0.16441847 0.4279803 -0.1518105 -0.15817612 0.3179319 0.39156383 0.45405048 0.43262357 0.3976013 0.33624315 0.53661025 0.60593134 0.4230823 0.3837237 -0.3800556 -0.29822907 0.7434617 -0.070257545 0.7831024 0.7399058 0.53015447 0.39059338 0.46618295 0.3243966 0.28834438 0.05277976 0.49330154 0.3133963 0.46313232 0.6148827 0.72028816 0.5891633 0.51712394 0.74161506 0.7583952 0.69643945 0.6427966 0.63135505 0.69188094 0.60152465 0.5484822 0.4761262 0.53799117 0.5935577 0.42674884 0.42040834 0.50971675 0.47084564 0.32589775 0.43453744 0.30420834 -0.091416664 0.23255372 0.13000081 -0.18582675 -0.10395696 -0.0068900213 0.19082767 0.47254986 -0.17372057 -0.10074669 0.057348706 0.17456487 0.46342504 0.39925247 0.40377718 0.024206195 -0.0443355 -0.59113765 0.25969768 0.4253828 0.324651 0.39349204 0.082729414 -0.1785096 0.30599982 0.19908533 0.17977175 0.17783235 0.17975403 0.16654001 0.13081595 0.095250115 0.20783818 0.22095859 0.19091445 0.18042845 0.