# vtk DataFile Version 2.0
Really cool data
ASCII
DATASET POLYDATA
POINTS 7384 float
65.4813 -60.32629 -28.589418
65.47578 -60.108337 -27.933563
65.45723 -59.792637 -28.385946
65.94448 -61.101048 -29.207619
65.893105 -61.27752 -28.44963
65.93401 -61.05623 -27.759657
66.10568 -60.30937 -29.733484
65.73588 -60.547787 -29.266409
65.52459 -60.482933 -28.437391
65.65717 -60.409374 -27.66662
66.05069 -60.235237 -26.70692
66.32845 -60.178455 -26.3034
65.94585 -59.57768 -29.683857
65.68673 -59.5437 -29.27849
65.50286 -59.53253 -28.55678
65.67889 -59.636253 -27.47919
65.92324 -59.38994 -26.96309
66.16547 -58.406532 -29.836895
65.77961 -58.673607 -29.375847
65.64521 -58.43453 -28.526377
65.73993 -58.59676 -27.662695
66.19248 -57.860573 -29.754023
65.992195 -57.747234 -29.376867
65.74801 -57.764637 -28.550833
66.01474 -57.604202 -27.770826
66.15884 -57.241367 -28.952993
66.17218 -57.08749 -28.496403
66.78738 -61.776054 -28.90528
66.51171 -61.664505 -28.395544
67.01636 -61.788704 -27.828909
66.53123 -60.959423 -29.735918
66.48401 -61.390152 -29.340017
66.525665 -61.540325 -27.683193
66.768326 -61.187504 -26.721455
66.992096 -60.988003 -26.226908
66.514305 -60.390022 -29.901394
66.92545 -60.344284 -25.98118
66.55844 -59.526333 -30.042238
66.99111 -59.80451 -25.83494
66.67489 -58.491142 -30.14029
66.97021 -58.685043 -25.977663
66.555984 -57.629025 -29.824646
66.46748 -57.38317 -29.598324
66.68839 -56.969933 -29.263556
66.63834 -56.730984 -28.70842
66.70424 -56.553802 -27.586143
66.970345 -56.71127 -26.714798
66.98584 -57.159866 -26.284412
66.89643 -56.34239 -28.077084
67.03762 -56.17171 -27.690334
67.227135 -56.187977 -26.875532
67.88103 -61.66836 -27.849747
67.89808 -61.79353 -26.932608
67.372826 -61.341614 -29.509167
68.10128 -61.598396 -26.367716
67.95838 -61.12523 -26.046532
67.731926 -60.422504 -29.834986
67.54331 -60.53057 -25.760685
67.446304 -59.344364 -30.31994
67.47419 -59.579006 -25.701723
67.94192 -58.475864 -30.518167
67.47653 -58.276665 -30.371302
67.35789 -57.651653 -30.11512
67.63176 -57.6981 -25.679354
67.6659 -56.99428 -29.726837
67.42043 -56.5796 -29.178919
67.2467 -56.526085 -28.756039
67.99221 -56.143578 -28.963934
67.55739 -55.96398 -28.26615
67.55697 -55.83884 -27.553688
69.391754 -63.547432 -26.758286
68.59518 -61.97884 -26.802858
68.79134 -61.254272 -25.710613
68.6104 -60.34634 -29.870916
69.10317 -60.643494 -25.46573
68.52546 -59.201984 -30.295961
68.66935 -59.7737 -25.304361
68.43823 -58.436752 -30.400713
68.2873 -58.117725 -30.412651
69.21033 -57.033207 -24.353039
68.66529 -56.929592 -29.748377
68.17223 -56.61375 -29.346775
68.438644 -56.2579 -25.42419
68.79992 -56.652058 -24.956919
68.32794 -56.006763 -28.78318
68.51814 -55.779476 -28.240675
68.51645 -55.50256 -27.494913
68.38897 -55.462532 -26.714987
68.918594 -55.635746 -25.35877
69.018555 -55.755646 -25.019556
68.661896 -55.3637 -27.07136
68.854256 -55.231052 -26.42717
69.0929 -55.27504 -25.497366
70.13816 -64.606255 -26.792349
69.99212 -63.97917 -28.13387
69.885796 -64.33458 -27.401026
69.89064 -64.314415 -26.635965
70.103645 -64.136086 -26.111452
69.40895 -62.912857 -28.68613
69.60622 -63.75777 -26.38111
69.807 -63.53898 -26.013979
70.00649 -61.95308 -29.829657
69.59425 -62.279007 -29.325731
69.65213 -62.179665 -25.584656
69.811554 -61.57396 -25.182384
69.45159 -60.63187 -30.01041
69.46771 -60.76383 -25.415985
69.32888 -59.26282 -30.217772
70.06431 -59.36928 -24.568214
69.19976 -58.402973 -30.306595
70.22904 -58.56089 -23.396675
69.47344 -56.40964 -29.557102
70.41923 -56.383095 -22.576466
70.40754 -56.483776 -22.162058
69.3493 -55.641064 -28.263968
70.19629 -55.37653 -23.188631
70.26817 -55.390335 -22.544455
69.61462 -55.344997 -27.651186
69.31024 -55.018856 -26.419899
69.591415 -54.995327 -25.575043
70.21896 -54.79385 -24.695414
70.12014 -54.778675 -23.325367
70.31215 -54.732777 -22.506897
70.35047 -54.1567 -23.028206
70.531166 -64.70429 -27.270378
70.573 -64.69948 -26.632668
70.524284 -64.28669 -28.060232
70.25568 -64.5561 -27.71577
70.328285 -64.52717 -26.317226
70.53765 -64.35554 -26.082401
70.683464 -62.724873 -29.456022
70.521805 -63.204082 -25.515945
70.7556 -63.030434 -25.421843
70.863205 -62.03026 -30.14469
70.14805 -62.183716 -25.21309
70.391235 -61.500572 -30.151543
70.43974 -60.86063 -30.272604
71.2194 -59.723053 -23.26773
71.1429 -59.714046 -23.139435
70.56696 -59.63596 -30.382326
70.71423 -59.544567 -23.802387
71.11343 -59.317898 -22.691126
70.92348 -58.003967 -30.189386
70.59547 -57.327705 -22.44002
70.83219 -57.112328 -21.881535
70.4949 -56.938793 -29.776909
70.88427 -56.227036 -21.632046
71.16873 -56.120655 -21.358583
70.18137 -55.869873 -28.84276
70.8864 -55.47658 -21.698818
70.142525 -54.990288 -27.046082
70.481285 -54.315193 -22.403303
70.749886 -54.45263 -21.874294
70.8436 -54.33573 -25.043806
71.08916 -54.269653 -24.465687
70.80282 -53.674843 -23.233099
70.731964 -53.76104 -22.679642
70.97038 -53.949413 -21.971714
71.12339 -53.41644 -22.896742
71.17559 -64.71901 -27.039728
71.0463 -64.68692 -26.541508
71.14367 -64.52097 -27.732555
71.34721 -64.53915 -26.424458
71.15767 -64.26882 -26.07809
71.42618 -63.31464 -25.647568
72.1382 -61.872044 -30.780579
71.41543 -61.854095 -30.459572
71.779236 -62.77229 -25.593977
71.28241 -61.997997 -25.230793
71.537895 -60.981655 -30.697622
71.40417 -61.59936 -25.242254
71.60137 -60.08835 -30.714636
71.975105 -60.150475 -23.630709
71.70697 -59.815296 -22.874395
71.4668 -59.434536 -22.471714
71.63677 -59.05117 -22.078186
71.5184 -58.40342 -21.841742
71.84102 -57.187584 -21.194038
71.65532 -56.25769 -21.066872
71.238785 -56.092266 -28.891449
71.70002 -55.48308 -21.080479
71.37002 -54.331715 -21.484716
71.79079 -54.51187 -21.238247
71.77185 -54.029163 -25.345234
71.74729 -53.4983 -24.243336
71.57607 -53.71689 -21.744047
71.56563 -53.232002 -23.166775
71.743004 -53.231354 -22.722017
71.96153 -64.05185 -27.515594
71.66045 -64.27612 -26.545166
72.09578 -63.64819 -27.015387
73.3153 -62.02644 -32.220486
72.44249 -62.7043 -25.822145
72.519905 -61.575375 -31.111336
72.85752 -60.814278 -31.438595
72.384995 -59.989017 -23.301367
72.53601 -59.775047 -22.90555
72.53168 -59.515667 -22.40334
72.30921 -59.18588 -22.097872
72.923485 -58.627693 -31.326485
72.33462 -58.40349 -21.696392
72.635704 -57.48871 -31.305609
72.3959 -57.695366 -21.44567
72.41362 -57.283703 -21.25335
72.76755 -56.58456 -31.187847
72.4056 -56.206734 -20.99602
73.245285 -55.56516 -31.688398
72.944466 -55.53018 -31.41192
72.650826 -55.194668 -30.569712
72.33451 -55.42545 -21.061718
73.19886 -54.72899 -31.344688
72.736336 -54.890785 -30.754118
72.81607 -54.377205 -29.581905
72.68476 -54.814247 -28.333479
72.52443 -54.82738 -27.551456
72.38204 -54.540203 -21.133158
73.2375 -53.533123 -30.338133
73.06575 -53.46833 -28.658724
72.79793 -53.59861 -25.566376
72.20481 -53.49058 -24.639677
72.353584 -53.536964 -21.596024
72.56147 -53.90815 -21.322384
73.34716 -53.079613 -30.076286
73.290054 -52.679607 -29.14666
73.33538 -52.549923 -28.913881
73.36691 -53.0963 -26.225967
72.72837 -53.293133 -25.026463
72.556366 -53.17963 -24.284256
72.55052 -53.042953 -22.89397
72.30971 -53.310856 -21.973192
73.6582 -63.64963 -30.233963
73.82568 -63.128735 -32.0953
73.448 -63.250797 -31.577404
73.69756 -63.528156 -30.403402
74.23826 -63.586105 -29.098213
72.90653 -63.095005 -27.286161
72.68188 -63.163673 -26.548904
74.13373 -62.361748 -32.75371
73.71232 -62.52121 -32.35514
73.53449 -61.764515 -26.576683
72.84988 -61.862453 -25.894562
74.0449 -61.690815 -32.72357
73.74901 -61.595036 -32.489998
73.28874 -60.249126 -31.556341
73.48046 -60.412273 -25.393682
73.239395 -60.1428 -24.744036
73.42527 -59.7674 -23.539774
72.91834 -59.689514 -22.946878
73.49528 -59.61272 -31.550213
72.969505 -59.313686 -22.516432
72.926025 -59.040775 -22.212238
73.868195 -56.860893 -31.90961
73.20342 -57.624557 -21.541386
73.09769 -57.045906 -21.305862
73.82355 -56.248993 -32.002876
73.10371 -56.429256 -21.213146
73.80702 -55.444252 -32.08443
72.96655 -55.43758 -21.073269
73.82719 -54.69354 -31.945473
73.578735 -54.58164 -21.532082
73.3764 -54.75268 -21.342514
74.15454 -53.768375 -32.20331
73.6016 -53.420418 -31.239672
73.24403 -53.583412 -21.853905
72.93265 -54.134773 -21.338034
74.2033 -52.65474 -31.87735
73.920395 -52.570045 -31.293283
73.6253 -52.566628 -30.4503
73.70828 -52.25577 -29.82927
73.708984 -52.50207 -26.77483
73.84276 -52.49186 -23.728765
73.050255 -52.958576 -22.89177
74.090294 -52.005085 -31.180597
73.835556 -51.90008 -30.493975
73.65876 -51.70015 -28.630436
73.703545 -51.529797 -28.01262
74.03344 -51.629467 -26.659548
74.1435 -51.565502 -24.018353
74.16157 -50.96251 -30.08276
74.07249 -50.886642 -29.35985
74.22991 -50.56691 -28.675451
74.4073 -43.14846 -21.851128
74.351 -43.153816 -21.458805
74.36982 -43.098053 -20.948103
74.41288 -42.80924 -21.860449
74.36462 -42.651478 -21.424759
74.375656 -42.70989 -21.007074
75.0627 -64.7224 -30.23891
75.04482 -64.752335 -29.535593
74.60418 -63.71021 -31.995697
74.73724 -64.10008 -31.409023
74.65528 -64.48236 -29.912737
74.6041 -62.95587 -32.77291
74.34185 -63.12469 -32.530613
74.69705 -62.509995 -32.952618
74.34961 -62.617596 -27.417074
74.493965 -62.397408 -27.245844
74.59222 -61.651443 -32.902454
74.65058 -60.8537 -32.667072
74.691986 -60.427433 -32.38393
73.80776 -58.005962 -22.258377
74.93347 -56.99027 -31.890915
74.94312 -57.45798 -22.333996
74.398735 -56.61956 -21.992788
74.62909 -55.570545 -32.36631
74.16383 -55.323277 -21.83867
74.76618 -54.575146 -32.38248
75.04218 -53.475883 -32.61504
74.78092 -53.357445 -32.49545
74.340454 -53.553978 -22.580887
74.538155 -52.71487 -32.117786
74.67656 -51.847767 -31.932678
74.82929 -51.393112 -31.662127
75.07864 -51.075356 -31.665043
74.84431 -50.72833 -30.98792
74.680374 -50.742954 -30.740053
74.48727 -50.344166 -29.42331
74.447395 -50.682537 -27.460588
74.62064 -50.4197 -26.923645
74.54459 -50.38045 -25.679577
74.540016 -50.357395 -24.74962
74.97553 -50.769474 -23.722893
75.16896 -51.17055 -23.285547
74.987686 -50.11346 -30.320896
74.7847 -49.928215 -29.51465
74.90815 -49.69338 -28.629
[...]
POINT_DATA 7384
SCALARS features_00 float 1
LOOKUP_TABLE default
0.7531736 0.6951298 0.6960209 0.8438236 0.8400693 0.7620251 0.7606514 0.7955907 0.76111794 0.7049452 0.63659704 0.5704489 0.71439147 0.717162 0.68739843 0.64347565 0.60902697 0.647959 0.6738447 0.65155935 0.627651 0.6228436 0.62014794 0.6146594 0.5761014 0.57472914 0.5530347 0.8226819 0.81440866 0.6396025 0.7798158 0.84290624 0.69447815 0.5376078 0.45926946 0.72213984 0.4550405 0.6548619 0.44136542 0.61686313 0.45634562 0.5958097 0.5834773 0.5438142 0.5226423 0.50776696 0.48516196 0.4626834 0.49116993 0.4793167 0.45914927 0.5062575 0.39892393 0.67542005 0.35524905 0.35339713 0.47713757 0.36443147 0.5134332 0.3726437 0.48041284 0.5533307 0.5686997 0.34982216 0.51592284 0.48969227 0.48856956 0.44099873 0.44965732 0.43952283 0.59596586 0.3015478 0.25083208 0.24138878 0.15350816 0.33472508 0.16935168 0.4156239 0.46334207 0.2389958 0.4452276 0.4508206 0.3541301 0.27724317 0.41651785 0.39877677 0.3862889 0.3826294 0.33757782 0.3012763 0.373303 0.3647239 0.33495235 0.7595278 0.67782164 0.7290009 0.7377367 0.7289202 0.38725227 0.6501093 0.62487227 0.1441625 0.2010997 0.34367046 0.2500588 0.11406149 0.12240491 0.21045884 0.09053523 0.29833227 0.35764527 0.37156323 0.46530902 0.5057509 0.35385752 0.44468874 0.52537537 0.33234394 0.32346368 0.29045808 0.2723999 0.48332363 0.5758079 0.558828 0.76523626 0.7728881 0.7219217 0.7478181 0.7610996 0.75342846 0.22422257 0.62141347 0.5963291 0.12054025 0.41087222 0.10448029 0.07965499 0.44225606 0.44446397 0.053246483 0.3422712 0.4541213 0.14369997 0.49467754 0.54817617 0.32865086 0.56661725 0.5928959 0.33368126 0.59415793 0.2605054 0.6177564 0.6436974 0.21284872 0.2968067 0.5502678 0.62924635 0.6824868 0.6156658 0.77147806 0.77636516 0.7575444 0.7673066 0.7590964 0.6459672 0.14152627 0.105667226 0.5252462 0.4618812 0.07442392 0.38563323 0.04506024 0.402474 0.46076584 0.46507734 0.47856444 0.5139102 0.5485102 0.5985977 0.24248366 0.62418836 0.68507606 0.6612065 0.13372234 0.31538796 0.70809346 0.5629804 0.63222647 0.6976987 0.74050194 0.6364598 0.45698726 0.41325206 0.18565659 0.1935687 0.42396992 0.44125396 0.45859498 0.46578532 -0.029674882 0.4475668 0.09974625 0.4468127 0.46755064 0.3081752 0.5373165 0.39054757 0.3773641 0.3061238 0.5746962 0.38115185 0.3256119 0.16792855 -0.016070185 -0.11154492 0.6068065 0.25622335 0.11086026 -0.008458115 0.2184504 0.66859317 0.62404174 0.24399728 0.20650011 0.20260222 -0.12529798 0.09243633 0.2769106 0.5483925 0.6683432 0.54663575 0.5732151 0.5424335 0.55517125 0.46770707 0.30688846 0.4180331 0.6144283 0.55007213 -0.037918963 0.16314119 0.5795808 0.51675624 0.22184673 -0.08926533 0.084442675 0.2757886 0.41429356 0.16115297 0.43115318 0.43460566 0.34126496 0.3435942 0.37489924 0.38264534 0.40701228 0.4120358 0.48173386 0.428952 0.4297127 0.45536265 0.46318144 0.37390363 0.5625258 0.56373954 0.46678942 0.40253133 0.30433482 0.27881742 0.044650197 0.18089879 0.49436888 0.40661544 0.34258732 0.25185183 0.23312333 0.15110798 0.24768955 0.37022734 0.34841493 0.35139272 0.81759 0.8434079 0.8618647 0.8120473 0.83517873 0.8551178 0.6043026 0.56559587 0.6097943 0.6028571 0.5666078 0.6494658 0.6261296 0.6566354 -0.02725014 -0.035130724 0.6300127 0.57635665 0.510406 0.25518775 0.25892466 0.075521566 0.17233336 0.39518502 0.26119727 0.44372234 0.4905666 0.4904002 0.3017331 0.4928769 0.4943304 0.4792711 0.5003451 0.4303816 0.41658878 0.4154028 0.2692593 0.26122814 0.34887737 0.4412455 0.44407722 0.36973494 0.46315375 0.45436856 0.4125471 0.34150252 0.48503512 0.504506 0.4701739 0.44222748 0.4875533 0.7524475 0.8122738 0.863427 0.71393734 0.78968096 0.8353559 0.87061137 0.83956194 0.7205999 0.7768107 0.81989294 0.8551967 0.80415285 0.6779277 0.73193944 0.80655277 0.7897731 0.7479296 0.6309227 0.62830937 0.602875 0.56228215 0.63583475 0.62405026 0.49741387 0.67217386 0.6603866 0.66590786 -0.043471735 0.6308504 0.26703832 0.57494116 0.5530655 0.21643414 0.039838016 0.053323895 0.18332027 0.042850994 0.2817402 0.06945817 0.3653604 0.42553812 0.07981252 0.49404877 0.506867 0.52122754 0.5668409 0.2508651 0.44983935 0.395715 0.34392852 0.40521556 0.57874125 0.5924711 0.5311326 0.48234457 0.4227418 0.37855485 0.51698226 0.6026932 0.7043923 0.5723634 0.63774663 0.74937594 0.83307475 0.79662883 0.6669277 0.74219847 0.69032425 0.6219871 0.6567955 0.7033448 0.6549617 0.6049319 0.6208148 0.645685 0.6879729 0.654614 0.6302179 0.6011117 0.6246338 0.6572939 0.62926483 0.632879 0.6356808 0.61853135 0.5825593 0.6321124 0.6290247 0.47953492 0.638262 0.63167953 0.5807495 0.578839 0.5057484 0.3023569 0.2986441 0.42686468 0.28267336 -0.0609172 0.19325317 0.04618989 0.018866569 0.0626457 0.12600033 0.20770232 0.0055425614 0.195212 -0.028996736 0.41283396 -0.0593533 0.481717 0.47309288 -0.064266756 0.5224047 0.044488776 0.6101373 0.29916233 0.16632701 0.5518089 0.7822603 0.43105114 0.6187125 0.592685 0.4685195 0.5629903 0.62590986 0.71553385 0.5867442 0.34526035 0.37072486 0.6068344 0.6146028 0.4661033 0.51094174 0.8225547 0.47192442 0.4340321 0.3906766 0.46559867 0.59528625 0.7411882 0.56507766 0.647713 0.7038065 0.7154042 0.5720185 0.64068806 0.7201699 0.73474103 0.63971895 0.7034672 0.42200708 0.44443846 0.5100019 0.6322136 0.60054874 0.57145715 0.57143414 0.6339888 0.6007049 0.6021005 0.576766 0.5876627 0.5699835 0.578864 0.5638666 0.56895006 0.57571995 0.6029602 0.54204726 0.5041106 0.568745 0.54276484 0.534495 0.63615096 0.6284633 0.61993575 0.61998296 0.20854633 0.47888523 0.35010472 0.2750367 0.26853114 0.293706 0.25761446 0.14460295 0.2681688 0.2384088 0.16837022 0.035312638 0.034967452 0.07936071 0.03087828 -0.12345603 0.018230617 -0.0025154501 0.33956936 0.047841363 0.07641064 0.34271365 -0.0338974 0.35988736 0.02285897 0.53850937 0.5210721 0.50642747 0.048189178 0.47085434 0.19018362 0.58843654 0.5882341 0.5529592 0.4941267 0.50713456 0.5397197 0.44383985 0.32123154 0.06355726 0.5206309 0.59672844 0.60546017 0.5699445 0.47667515 0.36487085 0.64384794 0.56184673 0.43898937 0.79180825 0.53015536 0.5793855 0.5892174 0.6269475 0.6523498 0.7432571 0.504253 0.5178525 0.5234462 0.5470489 0.42375833 0.7136557 0.7214582 0.16652209 0.5097522 0.73724115 0.733292 0.37068528 0.29789856 0.21037023 0.5395072 0.63485885 0.7296705 0.25483072 0.29553416 0.30896854 0.34440705 0.35336024 0.43845648 0.54896134 0.5097581 0.54262817 0.4936744 0.47554004 0.5254457 0.5386826 0.4493168 0.544086 0.54412436 0.52329266 0.48386747 0.42519724 0.61573136 0.4827923 0.58451426 0.3691343 0.2537009 0.28046143 0.11235014 -0.06740017 -0.10133706 0.15246472 0.22049743 0.101901144 0.20049872 0.20983322 0.19555736 0.06726493 0.13796863 -0.053436656 0.0563796 0.06585476 0.02749993 0.12808396 -0.056587122 0.13286638 0.1388713 0.04926669 0.2235466 -0.1618919 -0.07602799 0.044840246 0.8538455 0.812869 0.46589988 0.50212324 0.47250488 0.42968222 0.4428844 0.45279485 0.52665347 0.12722541 0.16926149 0.11548211 0.27542704 0.31135097 0.3336801 0.90594625 0.8766962 0.83040464 0.77759093 0.47798434 0.5317832 0.4956981 0.42290074 -0.12556106 0.28107914 0.45301473 0.55958885 0.3130604 0.34791404 0.3586087 0.36704364 0.8784282 0.8712925 0.8123365 0.22812253 0.33611658 0.5202147 0.31864017 0.4921402 0.32762468 0.32763106 0.35629487 0.34505677 0.8261477 0.80630344 0.3741347 0.2881178 0.46674186 0.35815305 0.6561326 0.23036116 0.20342462 0.33138508 0.3411765 0.555473 0.43589473 0.43788546 0.41580346 0.43106893 0.28112715 0.16728064 0.7202959 0.1191123 0.13479528 0.3028814 0.34644938 0.5858607 0.5984787 0.54305863 0.5042248 0.40245855 0.31278908 0.3682633 0.2627458 0.19056776 0.37615258 0.7481851 0.26620442 0.1083697 0.59076434 0.5643448 0.5060389 0.42167902 0.2934307 0.43018824 0.5068005 0.5988946 0.6930467 0.76206535 0.23573154 0.55928385 0.47222945 0.387464 0.56997395 0.28636083 0.28459546 0.35889122 0.43852127 0.27413806 0.43703327 0.342171 0.46701297 0.4825353 0.4708351 0.42279997 0.37440112 0.59292907 0.6232611 0.6375474 0.61381286 0.6445689 0.66100276 0.6518054 0.6390607 0.6773264 0.6763637 0.6518605 0.62018836 0.6283675 0.646867 0.5808046 0.58733773 0.61687124 0.6143216 0.603562 0.6203828 0.5991645 0.56766635 0.6225951 0.4672798 0.43243682 0.46575743 0.40517792 0.34396723 -0.051550586 0.27556676 -0.10653804 0.14797713 0.15498704 0.1112277 0.18163446 0.18393701 0.28304783 0.25134072 0.20001972 0.30829433 0.20806496 0.23765534 0.19561028 0.06785101 0.13860169 0.15993121 0.17220846 0.16387783 0.037841525 0.11186428 0.15980773 0.78523993 0.7641201 0.042074926 0.11653827 0.20183264 0.8626212 0.8488028 0.8187246 0.7721704 0.6889042 0.18238902 0.3203993 0.361098 0.3238301 0.3818833 0.23194972 0.16913947 0.2657519 0.26067698 0.36441153 0.07878047 0.3024398 0.327481 0.30342072 0.9094398 0.9082928 0.7330197 0.19347253 0.21041206 0.18912569 0.10270151 0.03468991 0.35093156 0.31965494 0.8862139 0.87220836 0.25005335 0.24633321 0.17656499 0.05609414 0.4266518 0.27080938 0.33781233 0.32046062 0.8349549 0.8057319 0.7732986 0.7417102 0.6247196 0.35648137 0.382561 0.16138557 0.40128732 0.5069526 0.33277583 0.29212302 0.7231578 0.5612557 0.20947662 0.3286969 0.3141957 0.57465684 0.11782479 0.18269348 0.21719137 0.1093143 -0.025705015 0.25207984 0.7347897 0.11493255 0.29406583 0.57244474 0.5818057 0.13992822 0.054625034 0.3246991 0.41281316 0.5804989 0.64688206 0.1606849 0.20558059 0.09091269 0.557442 0.5682857 0.5591267 0.49164134 0.23766911 0.5599653 0.5857333 0.57232857 0.5361285 0.16400152 -0.07370904 0.5362872 0.4619654 0.34663078 0.19988485 0.53926057 0.52626246 0.51357126 0.14664564 0.09739932 0.49295732 0.49178383 0.21736911 0.15980974 0.21079862 0.2635516 0.24576057 0.17270648 0.42613658 0.43238312 0.31568304 0.24277765 0.3141654 0.33372715 0.48642126 0.52328056 0.36341912 0.5256211 0.57236433 0.59997475 0.604867 0.5199375 0.63413996 0.60563695 0.5428855 0.6331425 0.5873549 0.50705564 0.55441624 0.5740411 0.58877003 0.5854308 0.5386727 0.5345284 0.5588938 0.5354543 0.60112995 0.59346294 0.52938557 0.46195194 0.5430174 0.42933732 0.44869125 0.5183783 0.3158574 0.30294016 0.14196981 0.19962476 0.14795046 0.06342061 0.14822868 0.26948532 0.3515812 0.36692646 0.39778465 0.81478935 0.88814336 0.31683898 0.34692866 0.7460146 0.799376 0.86550343 0.9153739 0.2530581 0.7204473 0.7696356 0.8384257 0.86231005 0.15750696 0.13513386 0.049670175 0.7296897 0.7645347 0.045730088 0.16225114 -0.038748942 0.1742697 -0.04077632 -0.029075507 0.17539433 0.15641883 -0.011155643 0.07206549 0.1647338 0.7436794 0.72158533 0.6000493 0.20657696 0.10711099 0.18964663 0.80783916 0.7902955 0.17771357 0.20286277 0.20279141 0.18103814 0.15525599 0.167992 0.16991644 0.05760905 0.010994244 -0.006236721 0.19023341 0.27300942 0.16617085 0.13850215 0.22768997 0.8881663 0.17580977 0.12669688 0.21981905 0.4227613 0.065644324 -0.2045221 0.02762739 0.234539 0.8542505 0.307915 0.14181037 0.7672622 0.74920034 0.30527687 -0.08382805 -0.122510836 0.18776487 0.6828651 0.45650908 0.51337105 0.22903788 0.25055075 -0.077280074 0.3708408 0.46603668 0.00095371157 -0.1127214 0.5068006 -0.04025574 0.15511228 0.15616499 0.38408726 0.5051356 0.5085135 -0.054444402 -0.06076469 0.6033861 0.5843866 0.48272622 0.4474047 0.085109964 -0.12197443 0.36458844 0.46336377 0.52768934 0.034154836 -0.035678625 0.14658011 0.21073955 0.19603288 0.26267892 0.3768552 0.48040542 0.50962424 0.45165625 -0.17674969 0.5501473 0.47381714 0.31270903 0.028173864 0.12719 0.17713454 0.19771576 0.3904128 0.47502398 0.47339302 0.4399964 -0.098627746 -0.0011961628 -0.04169185 0.020379148 0.114303045 0.15099439 0.17144358 0.25098753 0.41075328 0.45200703 0.44142592 0.3927347 0.0700161 0.34232476 0.28470737 0.09433934 0.73895586 0.66533476 0.59545356 -0.037593618 0.18768322 0.77760285 0.76106536 0.6367486 0.5667715 0.00066037476 0.19181597 0.10035913 0.8030655 0.7791668 0.70689416 0.6052811 -0.006329462 0.5768338 0.5564191 0.5471982 0.5235707 0.4736812 0.42567062 0.38599038 0.4336192 0.45148355 0.4122485 0.385717 0.38314167 0.33144963 0.34130704 0.37450975 0.42127675 0.4513405 0.3735897 0.36613315 0.38470823 0.3070103 0.24820432 0.52223843 0.5186344 0.28163493 0.23245072 0.19609435 0.573501 0.07971894 0.29954702 0.4610839 0.4978397 0.48849207 0.51028085 0.4738657 0.49828285 0.57987845 0.5861651 0.6676097 0.6703894 0.68967044 0.7253647 0.7879568 0.5766741 0.5637737 0.5600349 0.5597961 0.5328686 0.5196326 0.49675095 0.5042598 0.45705473 0.43792483 0.40021205 0.35077363 0.40387326 0.41651618 0.31027564 0.24494088 0.06887651 0.10608748 0.038225867 -0.27779335 0.29233626 0.17655054 0.3616351 0.38727322 0.2694217 0.39924747 0.7408463 0.8136966 0.8888537 0.9190252 0.28658232 0.24909663 0.72875625 0.77044225 0.9257202 0.8817537 0.140523 0.6490691 0.8210602 0.75839865 0.02310498 0.64801514 0.66677475 0.7372402 0.64779145 0.62020004 0.31332353 0.30610424 0.123100325 0.15324168 0.51198125 0.52676153 0.56965494 -0.0678923 0.159295 -0.051032208 0.14270905 0.009678792 0.13942581 0.08335674 0.6427387 0.6118328 0.5597379 0.19869229 0.14820468 0.12985292 -0.023449382 -0.07246348 -0.0875224 0.10171148 0.038454235 0.75578725 0.67517483 0.39629126 0.050356597 0.04859028 -0.09465736 -0.066245295 -0.02721756 -0.044032555 0.05488397 0.06566063 -0.03550192 0.142254 0.81580865 0.20436314 0.19572216 0.016031511 0.13475843 0.6800758 0.6171055 0.22177947 0.13702568 0.05968654 0.12342944 0.26782554 0.27576268 0.4982379 0.08989741 0.13287698 0.14597628 -0.0191679 0.41809678 0.4585694 0.30670992 0.1095531 0.47826707 0.49635047 0.4487149 0.41477925 0.32192785 -0.29598153 0.5685172 0.5667979 0.41138992 0.31764248 0.5291609 0.31047007 -0.29316804 -0.44754243 0.17826107 0.39252463 0.539081 0.6059389 0.42258805 0.29496983 0.060876686 -0.43449467 -0.06342989 0.31801438 0.08294466 -0.051883824 0.027442256 0.4048676 0.18348804 0.019769922 -0.02001055 -0.214858 0.029840559 -0.031413626 0.11140637 0.115715876 0.14416654 0.121756636 0.109713174 -0.035821497 0.20576197 0.17990881 -0.0335022 -0.061803058 -0.18122664 0.35841888 -0.026386395 -0.04219713 0.01710726 0.20654327 0.31665117 0.25109687 0.18977067 0.03753411 0.16177641 0.21319121 0.21061863 0.212724 0.014437884 0.033071384 0.10538913 0.73176515 0.7311654 0.23960009 0.28125322 0.3581589 0.38017297 0.36066818 0.23113137 0.14168176 0.2293744 0.17553055 0.11454253 0.0009843037 0.019191422 0.02221588 0.1068941 0.7582904 0.77983534 0.36795035 0.3919706 0.41648 0.37583873 0.2262462 0.31468436 0.32489276 0.2701818 0.018901795 0.00029911846 0.03293389 0.10386501 0.78739727 0.81159997 0.7883351 0.66129494 0.5837095 0.26523167 0.3434491 0.3695859 0.33921924 0.05079189 0.026437016 0.04130735 0.01944635 0.6113891 0.5908042 0.8052275 0.7592132 0.6968408 0.60028625 0.31947672 0.35328627 0.0711333 0.040419374 0.4966041 0.5673606 0.59658146 0.56945866 0.50893617 0.25237465 0.2425407 0.45196784 0.46410275 0.51949716 0.29445603 0.27746403 0.26970032 0.35560638 0.35834777 0.32870942 0.37728593 0.40909624 0.4486394 0.46230593 0.41160887 0.35786894 0.30397516 0.2753393 0.39677784 0.4131501 0.4110943 0.35919216 0.36470795 0.39048994 0.40733916 0.41504148 0.37906456 0.3621751 0.28149948 0.32337904 0.24995643 0.2723205 0.14281148 0.16893812 0.1775839 0.4091267 0.24297386 0.19303986 0.28553978 0.3034532 0.3742546 0.39854294 0.48351914 0.41177678 0.48319298 0.49517158 0.27127507 0.5747245 0.60089535 0.6945587 0.63371503 0.70922107 0.82105434 0.5860654 0.66757965 0.78681314 0.8243071 0.6310761 0.5512986 0.521925 0.48249432 0.4295826 0.5546988 0.5814317 0.56858844 0.5255606 0.47227478 0.37316427 0.47354233 0.5521244 0.35043135 0.44986147 0.5007767 0.4925154 0.40121552 0.31958744 0.40822715 0.24168491 0.26567695 0.31569734 0.35364676 0.33862048 0.26437163 0.27754462 0.16491348 0.10608612 0.00020201504 0.56639105 0.53441876 0.48003626 -0.027010515 0.20148501 0.3129292 0.5831565 0.58518 0.52079964 0.132454 0.35148445 0.35865635 0.4943329 0.5323547 0.47774577 0.29579723 0.71380424 0.81444734 0.86737895 0.8753203 0.28886425 0.3574196 0.34199673 0.30041823 0.21004991 0.63806546 0.7992656 0.28210878 0.29541215 0.23684877 0.19378985 -0.22628953 0.4394185 0.53586656 0.6377226 0.30942914 0.3206393 0.2936721 0.12968849 -0.42093804 -0.008911498 -0.07266929 0.38494253 0.5134336 0.31911385 0.3135474 0.2670194 0.21415368 0.36195093 0.37465125 0.4692908 0.376899 0.41981465 0.27271378 0.26624218 0.28854835 0.06741981 -0.21025708 0.07519278 0.22674116 0.25902537 -0.18499696 0.031251583 0.10519488 0.113375984 0.057517186 0.19171363 0.21816549 0.19509077 0.14262396 0.05591414 -0.09278968 -0.12704736 0.022098608 0.04033737 0.09300648 -0.2140759 -0.08088833 -0.13614753 -0.19641083 0.08963252 0.17945105 0.2118071 0.17219514 -0.09211222 -0.028022744 0.06866584 0.54326683 0.50090486 -0.09859228 -0.26339012 -0.14968258 -0.2458136 -0.3323379 0.17255677 0.028897591 -0.06372248 0.08234639 0.5996598 -0.18359216 -0.1732855 -0.19234176 -0.0031531379 -0.044085138 -0.19907649 0.06584212 0.18384162 0.3241789 0.3832286 0.6449436 0.03809917 0.09281791 0.0626301 -0.05457261 0.11066674 0.3133832 0.38783824 0.50456744 0.18305272 0.1268515 0.12657256 0.22085603 0.44607997 0.21446848 0.22053322 0.19754893 0.30548266 0.26987052 0.14475021 0.37667626 0.17022508 0.4509614 0.244311 0.19752404 0.114375345 0.41862473 0.42158428 0.46658516 0.45362076 0.4146973 0.6208708 0.1833753 0.6124787 0.22492477 0.17340645 -0.15088676 -0.24246746 -0.6320992 0.06139446 0.3604641 0.41354352 0.1743615 -0.05041267 -0.03256429 0.67540294 -0.0695324 -0.061329667 0.09409733 0.10316584 0.6729783 -0.011670854 -0.2571755 -0.02304864 0.14543341 0.7222077 0.26238883 0.29116035 0.08887758 0.116867825 0.07182396 -0.11922315 0.06683357 0.09433898 0.76006633 0.50728506 0.35399804 0.27435628 0.356973 0.0771337 0.2377146 0.22234668 0.010660908 0.04099743 0.045420863 0.08489649 0.49342042 0.5418247 0.62013406 0.5747539 0.52559423 0.7616206 0.68522805 0.59007233 0.44745755 0.21523187 0.30781528 0.3260546 0.351176 0.34202126 0.39533228 0.37781808 0.48004073 0.5247644 0.50176543 0.31414402 0.6136551 0.2713793 0.30314404 0.3255443 0.27150667 0.2645681 0.30731004 0.379794 0.4341092 0.4079183 0.38060847 0.382348 0.44152367 0.21461931 0.20739599 0.30684537 0.27748445 0.2654536 0.21004528 0.3409881 0.36156225 0.3814606 0.20697378 0.34480548 0.23743442 0.32090113 0.41278818 0.31635284 0.24674857 0.34583226 0.25903147 -0.09088872 0.30779445 0.31575394 0.39088458 0.40079096 0.35262012 0.29487702 0.33651623 0.3371086 0.19982803 -0.12982136 0.36472562 0.30756456 0.35419628 0.35162628 0.2750011 0.26469105 0.2611279 0.17460653 0.038746707 -0.09901123 -0.1614236 0.08711149 0.18583418 0.12698397 0.067670055 -0.010760784 0.053529643 0.1149787 -0.13464096 0.14997281 0.1437207 0.34099597 0.21702588 -0.022346735 0.049213335 0.13657703 0.18113169 0.20287159 0.012451243 0.30933562 0.2528616 0.13029273 0.30501842 0.28602818 0.4239998 0.61076784 0.49693227 0.7959821 0.5518787 0.5950236 0.78690505 0.533045 0.59627193 0.66144025 0.73688245 0.43562946 0.4453655 0.3302645 0.4747907 0.49175376 0.42141932 0.38276547 0.29764593 0.45727313 0.5141103 0.3318564 0.39104098 0.42686588 0.2629115 0.34783214 0.3794767 0.24179868 0.42242283 0.53546834 0.58767486 0.28688625 0.36529958 0.09774387 0.3497786 0.4757045 0.52594554 0.5795436 -0.14007664 0.101065 0.014337525 0.28175792 0.48405904 0.5438406 0.6215491 0.224682 0.015594542 0.5891908 0.2957996 0.029272638 0.28694004 0.06674124 0.12755032 0.1066664 0.26885432 -0.021255283 0.45569664 0.4226961 0.244457 0.14180303 0.03654454 0.4776262 0.53117526 0.43534827 0.40871853 0.29260445 -0.4878472 0.17892496 0.4638031 0.020580849 -0.34873417 0.15750955 0.28124422 0.18883906 0.84020066 0.81254923 0.18458131 0.2638577 0.093728244 0.3776247 0.539805 0.67260695 0.20421559 0.245288 -0.013957365 0.35408384 0.5268516 0.20916481 0.31816894 0.27199033 0.34450948 0.3569485 0.22492777 0.28996444 0.31710812 0.33374232 0.24633162 0.30945262 -0.097974055 0.12847179 0.20785008 -0.26826024 -0.06651692 0.23642817 0.27574363 0.30163497 0.35823542 0.04691187 0.07543312 0.015601948 -0.3077216 0.030066114 0.1067829 0.24207933 0.062204167 0.00021313131 -0.217888