# vtk DataFile Version 2.0
Really cool data
ASCII
DATASET POLYDATA
POINTS 7409 float
13.340559 0.14641583 -69.96857
13.314435 0.0691607 -69.4447
13.246106 0.50698286 -70.13951
13.140878 0.6573009 -69.463234
13.27125 0.74026453 -68.60542
13.24791 1.3953983 -70.14336
13.164733 1.4762979 -69.475334
13.173746 1.3372723 -68.68326
13.380192 1.0752506 -68.23028
13.364982 2.036205 -69.30661
13.400496 1.9057033 -68.4269
14.199996 -0.3926995 -70.84504
13.615517 -0.10666397 -70.3783
13.81831 -0.47703263 -69.20167
14.007053 -0.44981217 -68.537834
13.95096 -0.0749785 -68.06516
13.7620125 0.8273905 -70.90002
13.496851 0.35507923 -70.564156
13.856112 0.77005327 -67.78214
13.902269 1.291991 -70.93145
13.500722 1.5584409 -70.493286
13.696652 1.4171915 -67.89189
13.760836 2.2586637 -70.08984
13.576894 2.2756636 -69.592224
13.676081 2.2866635 -68.516556
13.999664 2.3251574 -68.10621
15.294342 -1.7249417 -70.0506
15.203984 -1.6243492 -68.31422
15.166027 -1.0686641 -71.69907
15.161361 -1.2895094 -71.55125
14.861765 -1.477931 -70.42241
14.527297 -0.94722927 -68.312294
15.223316 -0.8319329 -67.30612
14.654448 -0.3960176 -71.205765
15.184273 -0.3391453 -67.15153
15.267056 -0.020197384 -71.80138
14.425205 0.5499094 -71.240616
15.388144 1.0815189 -66.06998
14.397627 2.6003556 -68.28353
14.872122 2.63526 -68.02364
15.306321 2.7241192 -65.81901
15.311329 3.1781015 -71.016754
14.86359 3.2854383 -69.70353
15.314478 3.1304102 -66.728516
15.428447 3.3480096 -65.76685
16.425259 -4.2158246 -69.69607
15.926243 -2.5078712 -70.219315
15.543261 -1.9909831 -69.652855
15.784675 -1.8479254 -68.51117
15.684931 -1.7207319 -68.06294
15.757557 -1.4536021 -72.083275
16.179811 -1.2136515 -66.92017
16.130642 -0.055581182 -65.62015
15.83704 0.96401024 -64.77724
16.235052 0.94565916 -64.11133
15.876547 1.8693876 -64.405106
16.134117 1.3325194 -64.135925
15.635696 2.761798 -64.57887
16.233955 2.91003 -63.855717
15.560731 3.6146548 -65.29246
15.6976795 3.3056407 -64.65396
16.033766 3.3409362 -64.06893
16.159567 4.335676 -72.13868
16.03964 4.6093006 -71.67008
15.704518 4.5232167 -70.142914
15.962073 4.639486 -69.68574
15.860075 4.46536 -68.67645
15.926431 4.060873 -65.709755
15.997249 3.9519303 -64.77397
16.330694 4.8014965 -71.999886
16.201965 5.0673585 -71.2178
16.050344 4.9916415 -70.5721
17.157797 -5.851299 -69.3595
17.082363 -5.8902936 -68.53631
17.207632 -5.816067 -67.973305
17.243134 -5.4633613 -70.16135
16.808447 -5.6608844 -68.99103
16.747135 -5.462805 -68.499504
16.988476 -5.420668 -67.93852
16.760197 -4.5540304 -70.02676
16.56122 -4.7858276 -68.453896
16.712158 -4.6530747 -68.02964
16.328562 -1.9298747 -71.90769
16.578547 -0.9954979 -72.68249
16.769218 -0.91077447 -66.010216
16.916698 -0.63202924 -65.55404
16.489653 0.14056489 -64.571175
16.85957 0.18659776 -64.14957
16.73538 0.64102435 -73.130325
16.73922 0.668669 -63.92765
17.202274 1.4194459 -74.267105
16.670645 1.7422049 -73.591805
16.74362 1.432941 -63.613796
17.117525 1.5754066 -63.402317
17.185034 2.2935948 -74.142044
16.687132 2.5628161 -73.57017
16.578783 2.586177 -63.60738
16.987183 2.5408762 -63.442455
17.117561 3.7987266 -73.9882
16.698807 3.4392426 -73.416504
16.649448 3.4271166 -63.63448
17.163969 4.621591 -73.728004
16.708736 4.3137174 -73.133385
16.378824 4.5470996 -65.43323
16.582382 4.3475766 -64.56183
16.737377 4.0454297 -63.935364
17.064062 4.802892 -73.36696
16.942156 5.1584187 -72.428795
16.571344 5.2819443 -71.28897
16.464312 5.3825526 -70.31543
16.65041 5.3805733 -69.62523
16.707987 5.1747465 -68.77141
16.471106 4.9122987 -67.96499
16.763885 4.9563527 -66.50832
16.90582 4.8500624 -65.34691
17.75459 -6.0257688 -70.124
17.44924 -5.9803143 -69.560005
17.679247 -6.332 -68.467735
17.475368 -5.887991 -67.9579
18.110516 -5.267292 -71.45073
17.499008 -5.214595 -67.50057
17.880226 -5.2862005 -67.36088
17.878763 -4.3965254 -71.43706
18.169792 -2.9191115 -77.117134
18.050697 -3.0747805 -76.40828
18.286343 -3.4386234 -75.51042
18.173033 -2.9359257 -74.861435
18.277246 -2.2546697 -77.637596
18.110575 -2.3760128 -77.326096
17.648617 -2.3025532 -76.15871
17.640669 -2.1418877 -75.720314
18.081305 -1.8009304 -77.17278
17.753057 -1.5853295 -76.38013
17.690834 -1.4967666 -75.736626
17.776463 -1.4884309 -74.225494
17.820978 -1.5554912 -73.14678
17.43229 -0.9894382 -65.68739
17.912382 -0.51012963 -74.187454
17.631363 -0.18096662 -64.43677
17.500284 0.121626884 -64.09046
17.61151 0.59442455 -63.67905
17.711002 1.0793056 -63.425507
17.443602 1.4506806 -74.53083
17.574844 1.5899003 -63.362965
17.88176 2.3582754 -74.79469
17.499334 2.491838 -74.4999
17.646423 2.5975757 -63.320732
17.927221 3.2760785 -74.72129
17.624659 3.5458043 -63.521164
17.36683 3.2433143 -63.40132
18.124773 3.9152384 -74.59299
17.717188 4.359599 -74.27241
17.31899 4.0844383 -63.827404
17.82002 5.049977 -73.95262
17.617678 5.3823695 -73.316055
17.431467 5.4559307 -72.37874
17.490232 5.447961 -67.330986
17.660671 5.3546114 -66.37903
17.536657 5.19245 -65.53284
17.503435 4.8304863 -64.787964
17.676224 5.6032825 -72.98024
17.826323 5.6753845 -72.37856
17.284784 5.675957 -71.06061
17.419859 5.7864904 -70.695564
17.724792 5.871519 -69.732735
17.902794 5.7784324 -68.413055
18.04494 5.5803223 -66.75632
18.90779 -6.7968187 -70.27694
18.936611 -7.2393293 -69.49312
18.780577 -7.075278 -68.38936
18.69701 -6.8597317 -68.19122
18.643414 -6.222932 -67.60597
18.694624 -5.1646194 -67.12323
18.742058 -3.7768567 -75.54217
18.477667 -4.4847198 -72.21769
18.799448 -2.8999436 -77.65454
18.674595 -3.164369 -77.29553
18.55913 -3.517918 -76.65092
18.422318 -3.3495674 -75.27169
19.07935 -3.4455054 -74.076454
18.646435 -3.0179765 -73.57332
18.650785 -2.4256003 -77.76587
18.329218 -2.2712843 -77.61201
18.36087 -1.859063 -67.1514
18.771608 -1.8587022 -77.75107
18.38044 -1.5113232 -77.34967
18.39133 -1.2860327 -66.22572
18.30217 -1.184166 -76.85613
18.69062 -0.4090623 -65.133705
18.28242 0.3411062 -64.03312
18.422647 0.781533 -63.66634
18.123737 0.981394 -63.3882
18.659704 1.231387 -63.499943
18.41084 1.5779611 -63.353394
18.232159 2.6100693 -74.93883
18.594072 2.6861553 -63.61114
18.207214 2.5891695 -63.393566
18.545256 3.3645442 -74.97822
18.551073 3.3723428 -63.81591
18.572876 4.200765 -74.710976
18.632366 4.678063 -74.46863
18.218365 4.158412 -64.050316
18.44918 5.1809516 -74.1107
18.50006 5.4481893 -65.90746
18.450817 4.92306 -64.840546
18.487106 5.7268033 -73.39423
18.440273 5.7629437 -72.33933
18.727762 5.9562964 -71.04158
18.524323 6.045321 -70.41031
18.891068 6.152355 -69.74665
18.226385 5.631507 -67.458565
19.004045 5.767673 -66.97968
20.427717 -8.514284 -72.33632
20.3972 -8.505955 -71.49157
19.412395 -7.4261074 -69.51926
19.626995 -7.369581 -68.34356
19.504953 -7.141372 -68.05063
20.269524 -5.966643 -73.13775
19.652372 -6.2890058 -67.41959
19.883606 -5.123645 -73.23281
19.412777 -5.5417504 -67.307594
19.487074 -3.6032887 -76.982025
19.419115 -3.7761276 -76.452866
19.26422 -4.636757 -67.154755
19.231718 -2.8502285 -77.71621
19.47633 -3.1652327 -77.432205
19.069801 -3.738861 -67.12114
19.31841 -2.4004352 -77.83601
19.294058 -1.9047092 -77.80767
19.272223 -0.7660358 -66.3371
19.114649 -0.8301171 -66.1329
19.513788 -0.84443307 -77.24982
19.463575 -0.2861932 -65.64612
19.172424 -0.0018526614 -64.8856
19.530048 -0.31497383 -76.74129
19.84108 0.107834995 -76.20268
19.032763 0.83070993 -63.927753
19.939093 1.831538 -75.29119
19.012213 1.5293533 -63.655376
19.553059 2.7908986 -75.21707
19.560877 2.2610693 -64.35335
18.900854 2.1988256 -63.581963
19.72854 3.2175987 -75.12501
18.956873 3.466102 -64.14243
19.320545 4.2966704 -74.77592
19.69563 4.5809197 -74.60908
19.69674 4.6062074 -64.96508
19.482141 4.9837103 -74.24661
19.20355 5.445718 -73.71482
19.679882 5.472616 -72.25379
19.359337 5.1678333 -65.449104
19.68663 5.0057178 -65.15709
19.07011 5.7645097 -73.1733
19.097595 5.849498 -71.79684
19.268185 6.062509 -70.47407
19.641657 6.141156 -69.72273
19.425768 6.0847335 -68.38038
19.80914 5.843457 -66.48685
19.357006 5.6007137 -66.12233
21.0452 -8.9311905 -72.81129
20.919264 -9.166444 -72.2894
21.006378 -9.374112 -71.63948
21.021027 -9.106434 -70.72514
20.971798 -8.456098 -73.06763
20.554573 -8.617849 -72.40807
20.906765 -8.747392 -70.52472
20.778002 -7.633456 -73.168755
20.414745 -7.374265 -68.49662
20.21906 -7.0344343 -67.93949
21.081896 -6.4593244 -73.79474
20.412403 -6.3243423 -67.56172
20.17281 -5.9983034 -67.29111
21.091526 -5.845392 -73.87939
20.36552 -5.0323157 -73.63746
20.49745 -5.5940742 -67.34483
20.012882 -3.9019074 -75.20012
20.700611 -4.4611497 -67.52834
20.049192 -3.1296883 -77.13688
20.596905 -3.379126 -76.468895
19.954775 -3.7388716 -67.6277
20.188139 -2.3220909 -77.615204
20.573961 -2.023753 -77.510254
20.140627 -1.6174175 -77.623375
20.749273 -0.45105135 -76.95389
19.873394 -0.2553639 -66.33996
20.929228 -0.062533975 -76.68373
20.554731 0.28484982 -76.11537
20.620804 0.77208436 -67.56711
20.533737 0.36415437 -66.91856
20.101204 0.55688095 -65.620514
20.745026 1.4673547 -74.90253
20.316198 1.7047385 -65.653076
20.335506 2.8296216 -65.37757
19.77635 2.0736566 -64.47581
20.50126 3.404118 -74.96903
20.564554 3.2990708 -65.57923
20.290865 4.1176214 -74.73587
20.059095 4.543066 -74.406456
20.059275 4.653725 -74.239944
20.19318 5.083686 -72.6576
20.39242 5.4448404 -71.06414
20.973902 5.8298306 -70.44326
20.758635 6.0161247 -68.94031
20.892588 6.2820215 -68.64299
20.460808 6.2497587 -67.568726
20.581743 6.1191945 -66.80409
21.696247 -9.637926 -71.98024
21.654928 -9.693451 -71.51667
21.658003 -9.666311 -71.00584
21.410358 -8.889529 -73.00138
21.425655 -9.448087 -72.19346
21.630833 -9.430411 -70.65121
21.758696 -9.139391 -70.2823
21.807655 -8.111944 -73.5965
21.928682 -8.585116 -73.27031
21.63367 -8.703939 -70.14066
21.80365 -6.9973674 -73.97354
20.966461 -7.1618614 -68.60621
20.841368 -6.847087 -67.96697
21.905945 -6.347418 -74.23944
21.476646 -6.4380383 -68.389656
21.064392 -6.2879877 -67.89443
22.149513 -5.02806 -74.66903
21.141344 -5.504801 -67.63025
21.413774 -4.269194 -68.4596
21.155127 -4.717015 -67.8443
21.051788 -4.1259418 -68.073586
[...]
POINT_DATA 7409
SCALARS features_00 float 1
LOOKUP_TABLE default
0.6268645 0.6570407 0.6339525 0.67910886 0.6745417 0.6616138 0.67691743 0.67316246 0.65830004 0.64780664 0.6329924 0.47104812 0.5563094 0.57816684 0.5341145 0.5404829 0.5565914 0.57533765 0.5728717 0.56368756 0.6367868 0.5950711 0.59502494 0.6136193 0.58531386 0.5131206 0.39298236 0.34266132 0.36230978 0.3859642 0.45955577 0.3931281 0.30434728 0.4246405 0.30265594 0.29098576 0.44874227 0.39704305 0.41784346 0.27948844 0.44551677 0.31782186 0.35162878 0.24048376 0.4685039 0.3759122 0.23583874 0.32881045 0.32543147 0.30854464 0.2697208 0.24678345 0.38377512 0.50832975 0.5703215 0.6010523 0.5873709 0.62123126 0.67810404 0.5419867 0.6192112 0.67684585 0.3547427 0.33594465 0.2910419 0.286683 0.2358377 0.4856596 0.61252475 0.37275556 0.34413496 0.3253614 0.48940977 0.5188978 0.5265175 0.43242085 0.4900295 0.5054967 0.51884556 0.3950783 0.49989897 0.5037614 0.22611225 0.111406185 0.36000687 0.42470863 0.50417507 0.54378206 0.097222805 0.5743842 0.23238143 0.24901836 0.611226 0.614645 0.3273111 0.3246243 0.6634588 0.6511719 0.45450652 0.40379402 0.6915079 0.51945984 0.45074236 0.5174016 0.6373804 0.692314 0.5002079 0.42108303 0.3524999 0.33387733 0.3121906 0.27193668 0.23650253 0.31532252 0.49017486 0.46747118 0.49068993 0.5414312 0.5338952 0.26100263 0.5222416 0.5461365 0.22505687 0.780802 0.79017127 0.6176235 0.42109185 0.77182853 0.7695466 0.7189295 0.6175025 0.766278 0.7189522 0.56610525 0.1720609 -0.03921947 0.45365706 0.03345242 0.5358798 0.55905604 0.58552265 0.59719193 0.24504736 0.60913277 0.35818583 0.35703105 0.6252103 0.43834412 0.64395624 0.6536124 0.48860312 0.52376735 0.6767592 0.57416856 0.5368024 0.42664915 0.22139099 0.2859909 0.39621955 0.53965527 0.5025493 0.42991835 0.3373488 0.32433784 0.28913173 0.22199813 0.23879929 0.48628795 0.55313784 0.6002431 0.5964967 0.5864764 0.57815063 0.6255326 0.02485689 0.77119887 0.7825292 0.81565917 0.5451169 0.2156794 0.09157684 0.76981807 0.7732112 0.21115491 0.74669886 0.75331104 0.32818988 0.7443117 0.447195 0.573039 0.58491075 0.5943034 0.5860138 0.59593534 0.39948112 0.57826 0.60134983 0.45631552 0.56449854 0.49764755 0.52919346 0.5918233 0.57342017 0.30962875 0.46442676 0.55697227 0.41680688 0.26254627 0.24481899 0.19193721 0.19870614 0.20148408 0.6758352 0.71104145 0.51790553 0.58239794 0.5893468 0.1532737 0.57012326 -0.0465103 0.56047213 0.7693751 0.7852965 0.50902694 0.7592038 0.75575745 0.38490057 0.74646527 0.73166454 0.26791912 0.2936964 0.6313718 0.3233059 0.46035618 0.46761316 0.25073338 0.5603232 0.108557 0.56761795 0.3679133 0.46146637 0.5702744 0.38111883 0.52127385 0.4585239 0.43381497 0.4303481 0.4741148 0.51776266 0.29350266 0.3482939 0.3607938 0.49408776 0.29977453 0.18620822 0.14303565 0.13585396 0.20962925 0.2637768 0.6657903 0.72562164 0.7676782 0.72805965 0.5784033 0.6812776 0.66803366 0.43017045 0.51868236 0.5590131 0.2711035 0.5493848 0.55067736 0.22233152 0.02673538 0.5277577 0.54832584 0.4424613 0.7187289 0.65537417 0.40456644 0.7030512 0.641855 0.65190196 0.37399578 0.27257404 0.27488363 0.18367688 0.19542499 0.24781808 0.33063322 -0.012555949 0.2370984 0.21229069 0.42311335 0.2774136 0.15048149 0.32767338 0.3755632 0.37743947 0.2877723 0.15095045 0.0891343 0.089353524 0.10457628 0.15166475 0.20662723 0.7601797 0.7722216 0.7599914 0.6403486 0.74229217 0.74155605 0.68992865 0.4759549 0.5723069 0.60640645 0.33287373 0.47351804 0.53543323 0.2818231 0.48603284 0.5282898 0.21069211 0.50257486 0.314084 0.42990994 0.35584223 0.5420224 0.45601815 0.39567602 0.30063426 0.22098494 0.11282934 0.03717668 -0.053530373 0.013696447 0.10192574 0.09427578 0.17101036 0.23386464 0.035504714 0.11572961 0.44196367 0.42623675 0.34826362 0.41876763 0.7557194 0.763702 0.7494132 0.6648104 0.7087896 0.7492749 0.7249895 0.69161934 0.4282816 0.51507264 0.49456543 0.3445316 0.25468877 0.29775426 0.42168304 0.31108674 0.10135468 0.064326204 0.27485216 0.2680068 0.1804253 0.061073974 0.11849486 0.15372504 0.020308033 0.26931038 0.4306404 0.37105384 0.032666966 -0.22103845 0.5619221 0.21296346 0.37916914 0.47866586 0.5030525 0.5526762 0.44507837 0.46756944 0.6648463 0.7013264 0.49214324 0.50561875 0.25910532 0.14700842 0.054684673 0.10908546 -0.39014864 -0.007888287 -0.32540643 0.002390556 0.015027642 0.10044006 -0.04604745 0.10097955 0.18807542 -0.06782677 0.28364035 0.50932497 0.24353132 0.58482105 0.42589486 0.3938002 0.2987542 0.32258812 0.5648266 0.58889425 0.48516253 0.5217872 0.40872768 0.46360013 0.5154114 0.5467213 0.50404507 0.58394074 0.6655431 0.5344678 0.58215123 0.6485204 0.4996063 0.6078868 0.6718576 0.29986757 0.30844092 0.5720483 0.39901254 0.11198194 0.10014577 0.11353541 0.116090655 0.072050944 -0.011284523 -0.088451736 0.1118102 -0.32301006 -0.16831964 -0.0618198 -0.30122864 -0.2518322 -0.016076487 0.012701742 0.12194641 0.095272966 0.06278123 0.16941059 0.095514186 0.2539051 0.30369997 0.09018444 0.37701687 0.46906155 0.18186605 0.5794368 0.3135638 0.5829523 0.5961567 0.44583455 0.43799552 0.6190026 0.30244467 0.48858535 0.5359311 0.54880404 0.4802786 0.49807972 0.5683852 0.4674054 0.49360582 0.62450135 0.48204172 0.83529 0.7984296 0.7533268 0.8754553 0.7991281 0.73628753 0.38917547 0.41142803 0.8450161 0.78560257 0.38023132 0.44368267 0.5128422 0.6021559 0.65812665 0.47384962 0.47932124 0.5167598 0.59565854 0.65593284 0.49921 0.51325905 0.06912689 0.19070566 -0.012670666 -0.06750342 -0.016525678 0.44833273 -0.06728726 0.23195669 0.5228307 0.6223197 -0.05491066 0.008011825 0.5007811 0.029136593 0.07760447 0.11744891 -0.061744362 0.2942254 0.09411083 0.2911726 0.35684192 0.104940325 0.36530653 0.42834347 0.13735798 0.53858185 0.50167316 0.5874585 0.59610224 0.3930413 -0.0656622 0.41322577 0.497617 0.42540687 0.427655 0.43951383 0.40701905 0.7821822 0.7447642 0.7043779 0.6791292 0.35594264 0.45670778 0.8564614 0.83902395 0.7864207 0.7431961 0.6955142 0.23112395 0.3401746 0.8862096 0.8855264 0.67188245 0.65220547 0.31732625 0.3676689 0.42799523 0.4680835 0.86460733 0.836717 0.6800473 0.5490887 0.42209658 0.29802707 0.3601909 0.41601497 0.7864536 0.7702563 0.4187495 0.29075143 0.34241095 0.37499434 0.3253159 0.2294846 0.19090755 0.24864614 0.2597527 0.2524039 0.20437029 0.26631284 0.25880387 0.33351856 0.2534785 0.31348065 0.3290149 0.38343865 0.5512859 0.66602516 0.6912561 0.42623013 0.4206683 0.42593575 0.46301812 0.60794497 0.68658876 0.7036164 0.46567017 0.4711619 0.61507636 0.67998135 0.7021743 0.45066062 0.49799365 0.5044632 0.5310068 0.5706042 0.6364562 0.6741065 0.45991364 0.4734658 0.48704305 -0.011668712 0.067867756 -0.017492384 -0.023668393 -0.007986672 0.73886585 0.28679517 0.7025535 0.7117725 0.72239846 0.6955471 0.7234732 -0.13176435 0.64706475 0.6941239 0.6361274 -0.15075628 0.37332967 0.13714254 0.14769864 0.09640938 0.13925612 0.040073797 0.23296776 0.053979985 0.10266382 -0.023327926 0.1715784 0.12821351 0.2813125 0.7095732 0.69287544 0.68230087 0.16126314 0.3828003 0.7969481 0.7646923 0.26391166 0.8307457 0.3881906 0.8427482 0.09510147 0.42811674 0.31119865 0.6282451 0.62825656 -0.094014555 0.04068065 0.23935997 0.3369782 -0.1070644 -0.0587005 0.071863934 0.29591635 0.179056 0.17803991 0.092472255 0.043893278 -0.0554115 0.017144516 0.05414806 0.028416526 0.3133465 0.21596533 0.076318786 0.033565126 0.020106792 0.03674841 0.027538676 0.5401429 0.51002264 0.4047234 0.2649668 0.187163 0.06471376 0.021233086 0.57573473 0.5508958 0.44537002 0.2676988 0.2454392 0.22822714 0.16064462 0.32478675 0.5972475 0.57609403 0.51164836 0.367889 0.22738577 0.21923071 0.13819651 0.10418474 0.031356655 0.20396614 0.35399908 0.34405297 0.33755073 0.59025943 0.4883337 0.1574978 0.50689185 0.25440085 0.60719514 0.65933466 0.69148743 0.69589126 0.41026944 0.58633214 0.6225232 0.30326506 0.37890124 0.42873496 0.4248171 0.45455518 0.49143228 0.35462415 0.38850683 0.39659077 0.38063037 0.3875168 0.60131454 0.7294515 0.4932179 0.5022465 0.4359217 0.2993919 -0.037428558 0.17331855 0.7116552 0.71932554 0.70485294 0.16616899 0.14646055 0.7202674 0.7353968 0.11530602 0.74286467 -0.08635302 0.7365583 0.7691186 -0.05006837 -0.19665596 0.615376 -0.034605704 -0.00383313 0.4046205 0.22563477 0.113002256 0.015517409 0.079202704 0.08236572 0.05428608 0.16728543 0.23322442 0.073328406 0.12418805 0.011657789 -0.18437713 0.02264043 0.026526019 -0.13680369 0.10322584 0.10047658 0.61185664 0.6151656 0.5510684 -0.010206103 0.6785773 0.6251224 0.05746743 0.6807249 0.19871682 0.6547268 0.19158255 0.11608361 0.4235696 0.4512728 0.31056136 0.33602762 0.45657173 0.5075989 0.29710352 0.47744393 0.49547815 0.4979369 0.47626215 0.4782138 -0.0019714981 0.39089108 0.522897 -0.016250402 0.24296796 0.061225317 0.2812006 0.560628 -0.021628486 0.27911693 0.24478976 0.25953287 0.59708637 0.006899141 0.2801312 0.64792407 0.6207633 0.08281082 0.2752671 0.62916195 0.5577851 0.4523269 0.12171171 0.19074284 0.13598742 0.012976006 0.5122444 0.58365405 0.25446296 0.21453044 0.16402274 0.18985298 0.28001243 0.6504425 0.31551623 0.30038434 0.17515256 0.63345814 0.37629682 0.23680457 0.57008326 0.3100646 0.3991538 0.4434362 0.53211385 0.28324118 0.33897126 0.35061848 0.36041242 0.34612253 0.3645122 0.4133491 0.35490084 0.4808935 0.5523555 0.7027683 0.7712171 0.77574265 0.39347315 0.44551945 0.7084967 0.11526466 0.4307986 0.52691686 0.61684406 -0.012664391 0.07227307 0.42586243 -0.035989895 -0.096258864 0.15707108 0.23488045 0.20854458 0.16097374 0.56885874 0.6370764 0.66656864 0.64854187 0.6788225 0.7185617 0.8108212 0.74919474 0.14567846 0.09216259 0.72480536 0.8217412 0.8301195 0.7853162 0.7021294 -0.033743694 0.7033795 0.80257595 0.8089917 0.7539755 0.5645832 0.28134215 0.639866 0.7298987 0.7028698 0.6629313 0.5424913 0.31380877 0.2913452 0.5760777 0.55933166 0.50172347 0.06150689 0.06942609 0.14252001 0.51038283 0.12523605 -0.057090525 0.040098112 -0.053414702 -0.13070542 0.23427059 0.11602221 0.24436341 0.21634717 0.109821 0.21198136 0.28715363 0.28529367 0.032767776 0.29357693 0.10382794 -0.06171586 -0.17843962 -0.017126963 -0.030814698 -0.09712523 0.4816332 0.48524898 0.36351112 0.11484714 -0.12939246 0.5571949 0.53526086 0.021345094 0.09490752 0.10533555 0.5397175 0.0022937576 0.48290187 0.07699037 0.42112783 0.15835668 0.37907594 0.4316902 0.36111334 0.4824087 0.48492905 0.20837912 0.47439837 0.34990007 0.32426283 0.37939554 0.4582369 0.22196919 0.54555285 0.5344939 0.22907276 0.5758909 0.6051836 0.24530761 0.6696596 0.2598657 0.72373265 0.70700145 0.08127111 0.6674366 0.63431114 0.5046546 0.2902748 0.3615322 0.56308126 0.50991905 0.4609924 0.5578288 0.4038024 0.20333722 0.5246254 0.24180731 0.34459332 0.37296122 0.43527296 0.3597831 0.36024368 0.34118792 0.33032563 0.343951 0.7039338 0.7606122 0.36607838 0.43401846 0.54410785 0.7864593 0.81231296 0.40691176 0.71486264 0.09562559 0.6234491 -0.013590151 -0.0041262098 0.4875844 0.5842973 -0.044018686 -0.063261576 0.2861181 0.27205363 0.21517411 0.05608686 0.24433428 0.5852339 0.20000285 0.5021248 0.7633904 0.7340337 0.5983933 0.6120292 0.68906295 0.7789413 0.7881009 0.50277054 0.5234581 0.6495087 0.7550968 0.655024 0.6097965 0.16115516 0.5329755 0.50043416 0.48529443 0.40247396 0.21174249 0.141152 0.065534085 0.016811194 0.20487033 -0.04507003 -0.31124187 0.20543738 -0.007159113 0.26000634 0.12438284 0.23383611 0.2483725 0.28846058 0.082874075 0.1677145 0.32957584 -0.048817948 0.31431276 0.27872118 -0.025508853 0.2656098 0.02304424 0.0060389247 0.0313113 0.010023907 -0.050104506 0.022453144 0.4388777 0.37151307 0.27051586 -0.1629261 -0.0629104 0.027578361 0.46909904 0.45332018 0.39048856 0.24531569 0.14094141 -0.30453223 0.4667702 -0.06525918 -0.11780481 0.43511066 0.026212683 0.13019285 0.27718884 0.32111043 0.3661313 0.11007282 0.41796649 0.32315853 0.30808657 0.3214532 0.4575586 0.1851052 0.5083837 0.50261307 0.12349175 0.6311319 0.22206225 0.69365764 0.73576343 0.2301243 0.7958942 0.79482317 0.7658007 0.71076083 0.4101962 0.5774708 0.49580258 0.5482042 0.5205534 0.51518154 0.37357157 0.4751529 0.5024647 0.36066014 0.40028128 0.23297834 0.34971887 0.32209396 0.3140734 0.33735612 0.3609286 0.33330214 0.64600265 0.68322045 0.7569078 0.42090678 0.5583466 0.79432046 0.40414667 0.29421926 0.6925918 0.67030656 0.30002886 0.29301608 0.6600264 0.6494258 0.15146028 0.07507361 0.62106085 0.6242517 0.36359257 0.2935272 0.1891169 0.31487566 0.3733158 0.43942863 0.3051046 0.3282552 0.6060437 0.52064574 0.28171587 0.24029526 0.6139151 0.65923023 0.004412636 0.57383156 -0.071376726 0.5040547 0.5019516 -0.108594485 0.482024 0.24359402 0.4655706 0.45247597 0.33670312 0.16302565 0.03572261 0.24723946 0.007617252 -0.17649253 0.3759657 0.0009189416 0.2942584 0.3338011 0.22335508 0.24035205 0.3204354 0.28099018 0.14949343 0.19056183 0.34938782 0.35953736 0.3496431 -0.032714646 0.029423386 -0.10169148 0.041011885 0.05111043 -0.6655166 -0.0073916465 0.056065217 0.053752527 0.40247405 0.36968008 0.32056195 0.24575534 -0.020997658 0.025731526 0.39639828 0.3621676 0.27554137 0.090726055 0.123088405 0.22719957 0.21761732 0.08021692 0.30128425 0.32531714 0.07433142 0.28602788 0.28053802 0.22586657 0.38745114 0.14932661 0.17106429 0.5883597 0.6713564 0.6937603 -0.13035966 0.1674404 0.73671734 0.7722335 0.10916006 0.09932946 0.80159056 0.7734555 0.6569781 0.6812547 0.45421535 0.29652652 0.5832861 0.56909776 0.5279841 0.49974328 0.31201023 0.33905637 0.31040916 0.10705951 0.08881257 0.28004864 0.25050354 0.2953722 0.14561903 0.34980118 0.28979558 0.6773261 0.69546026 0.56870294 0.6513411 0.688368 0.74817955 0.75347686 0.48038834 0.47494856 0.4955013 0.5206088 0.70665276 0.41947287 0.41312164 0.39323127 0.67399776 0.6617559 0.6584878 0.54839647 0.34345144 0.2783109 0.56152165 0.6597971 0.5246693 0.52074736 0.379089 0.4745655 0.42237392 0.34165263 0.50301087 0.56251436 0.12184907 0.5233137 0.49327904 0.47896042 0.474476 0.14838234 0.45849913 0.41902453 0.3351063 0.10097745 -0.08962484 0.41971743 0.407241 0.18345717 0.305322 0.3397533 0.340596 0.065236166 0.23818776 0.387614 -0.122762725 0.38689485 0.044679053 -0.06301979 0.13396318 -0.16042113 0.07279613 0.12002825 -0.5871705 0.061429147 0.09861897 0.36150357 0.35416508 0.23720163 -0.0035827598 -0.19734798 0.34610847 0.2412522 -0.009384368 -0.0007576607 -0.004553646 0.17077278 0.31022736 0.2246309 0.22369188 0.29875398 0.15779789 0.21351919 0.43974873 0.22455998 0.27260703 0.63302517 0.49670225 0.17193955 -0.31794274 0.24178565 0.30139992 0.70127314 0.62977517 0.3797075 0.2030929 -0.26554337 -0.2182562 0.24964288 0.27111423 0.75281394 0.685446 0.58548164 0.32276195 -0.16514002 0.7398583 0.66547847 0.08550194 0.05866488 0.079850644 0.004879527 0.5194957 0.55947065 0.5233113 0.2830035 0.10943839 0.06747833 0.14445595 0.08802398 0.14573108 0.20750645 0.7648152 0.7823601 0.78538865 0.79424727 0.80000246 0.5645646 0.5561571 0.63278556 0.6628032 0.49281454 0.5414372 0.55709755 0.47380367 0.5623847 0.57477385 0.6367022 0.72872853 0.7086236 0.40019178 0.41826704 0.57030714 0.70010626 0.70310175 0.22610512 0.6433785 0.6334675 0.59309816 0.48955488 0.6115208 0.63080055 0.57209295 0.4028996 0.48017883 0.41307068 0.332874 0.29159343 0.3896374 0.43944326 0.36301136 0.24843064 0.48395878 0.18254992 0.4815386 0.4748401 0.47427303 0.4728027 0.26176614 0.45926625 0.4038238 0.3129368 0.38083923 0.4421055 0.4503925 -0.040735975 0.29718292 0.36465788 0.1638364 0.20992935 0.041846417 0.2756224 0.12951055 0.16671222 0.13134457 -0.24330871 0.17834091 0.15085039 -0.6767646 0.15934755 0.12243691 -0.5332242 0.092062235 0.6840968 0.2692087 0.21300273 0.5352169 0.6170173 0.7203054 0.8188158 0.25867516 0.21951005 0.15484832 0.5439178 0.66241616 0.73104405 0.8206061 0.40717733 -0.12614256 0.6545511 0.52777404 0.477309 0.24411955 0.33047062 0.44454467 0.4458502 0.33275253 0.44254947 0.371568 0.25833124 0.11021665 0.35405132 -0.13929231 0.30832854 0.34336764 -0.29484728 0.29115444 0.31111702 -0.015745668 0.17936148 0.16645001 0.17013688 0.06836718 0.2847805 0.21635064 0.1475816 0.11969449 0.13393398 0.33346218 0.24717873 0.1625775 0.16454324 0.15698977 0.09794116 0.07576516 0.081139676 0.49206352 0.5072938 0.46483877 0.06228085 0.11566615 0.450029 0.32243803 0.16558547 0.22912517 0.1796022 0.11926874 0.20539871 0.2206725 0.64801115 0.72607183 0.6771042 0.6214026 0.5791238 0.6987489 0.70158994 0.72389245 0.6763684 0.6645096 0.73279446 0.7502226 0.76405275 0.73762596 0.748401 0.7948686 0.80633104 0.785866 0.7482194 0.78663206 0.79177994 0.56937027 0.55477077 0.5093658 0.54753125 0.58285284 0.53453255 0.4688626 0.3989485 0.44377238 0.31342044 0.57744694 0.63938487 0.34125963 0.5260672 0.6735498 0.64368653 0.33170828 0.23109128 0.65951437 0.6797005 -0.02150727 0.26375332 0.61366534 0.13658494 0.29400712 0.35704976 0.38947067 0.4045593 0.37331855 0.23462549 0.24321051 0.30488268 0.32538217 0.1444763 0.37579554 0.05095564 0.43480027 -0.21455842 0.4632179 -0.00038510375 0.40677166 0.33390066 0.3140002 0.2784756 0.42399967 0.39639318 0.32139733 0.52337825 0.043086447 0.04738356 0.6857058 0.6679237 0.58115304 0.38543037 0.06388847 -0.03762664 0.7027924 0.5702251 0.51238847 0.08291252 0.03192465 0.09607365 0.11904219 0.7440095 0.13103315 0.12147254 0.07121432 -0.6611445 0.07318649 -0.57514495 -0.6412518 0.04562732 0.20611025 0.5055769 -0.47514114 0.0009316653 0.004662499 0.09891107 0.35265958 0.5343376 0.63316643 0.7513159 0.8245825 -0.07676658 -0.49212292 -0.13923128 -0.06444145 0.1733774 0.8349292 0.89862883 0.27608192 0.1969282 -0.23133096 -0.04942044 0.5271491 0.8859526 0.92145884 0.54383016 0.5402384 -0.20774585 0.026400642 0.59859216 0.75563633 0.84340745 0.91722155 0.5933343 -0.296484 0.5654996 0.30402964 0.5302397 0.5111636 0.38842726 0.4928654 0.46234813 0.45070487 0.43395126 0.30221316 0.4846947 0.103972346 0.41802403 0.18625733 0.3109302 0.20523447 0.09311573 0.16668239 0.17195636 0.18093726 -0.15129818 0.10158044 0.16993117 -0.097842574 -0.021788657 -0.021296598 0.10293287 0.43925354 0.28111225 0.5035096 0.50066656 0.4976527 0.4621039 0.512898 0.07698825 0.4818477 0.45723864 0.42620137 0.14917521 0.40686223 0.38516733 0.25575024 0.11182123 0.071322225 0.18415937 0.21109383 0.17393997 0.5418707 0.41294906 0.6951046 0.66588104 0.55550265 0.4953476 0.46393353 0.48040855 0.5398668 0.66447204 0.7273868 0.7167078 0.6365803 0.5752359 0.738062 0.7310944 0.6684959 0.5392584 0.68711144 0.71085525 0.6932274 0.6580738 0.55744445 0.45316857 0.6470741 0.6816869 0.63450336 0.7281906 0.71460944 0.645533 0.6331774 0.6436151 0.5104031 0.5633004 0.6095462 0.5465231 0.4669458 0.43203527 0.4745181 0.43578076 0.36104316 0.23403291 0.6577904 0.5593984 0.21516061 0.6984159 0.68580556 -0.0029163547 0.65957844 0.6857804 0.14012754 0.18203247 0.64119107 0.23145396 0.32521823 0.44756174 0.35672086 -0.39800006 0.22743061 0.08889828 -0.11766188 0.093699485 0.29531902 0.22769423 0.07484365 0.3276173 0.059463985 0.3856021 -0.1954758 0.28048384 0.2951569 0.4974895 0.49866712 0.43895125 0.20695274 0.5974903 0.036338955 0.763191 0.7230155 -0.016526999 0.8325715 0.8141848 -0.037587803 0.022252023 -0.025291145 0.8321919 0.8264452 0.7481055 0.26018447 -0.041518714 0.0724967 0.3275424 0.397721 0.4599168 0.7900044 0.76266205 0.039839715 0.07359003 0.08672166 0.04832063 -0.5698581 0.11022311 0.2250796 0.3512729 0.4337954 0.50436157 0.5925213 0.09730308 0.06139771 -0.49664655 0.5924525 0.6845119 0.8163035 0.094651155 -0.4087567 0.87677646 0.8930161 0.1614457 0.91200364 0.90606254 0.5801352 0.70007074 0.8774692 0.89341897 0.6037956 0.6057312 0.582178 0.57877886 0.33164084 0.55954504 0.54348564 0.50526744 0.32234553 0.50431734 0.4568386 0.3722396 0.17171934 0.025854567 0.3506204 0.27760583 -0.002732493 0.45125335 0.2322423 0.45180637 0.23828433 0.25694126 0.3657639 0.13592091 -0.28170383 0.13598315 0.16635042 -0.4398436 0.20836759 -0.20735928 0.06693585 0.15559405 0.14863354 0.0061630756 -0.1028789 -0.055022776 0.025278244 0.0032146052 0.39971018 0.35810226 0.18980056 -0.15325612 -0.008151941 -0.066185 0.47066838 0.03821123 0.43808022 0.46322566 0.8648239 0.8427729 0.44639772 0.4526668 0.87045425 0.85669434 0.38577634 0.19269443 0.1