# vtk DataFile Version 2.0
Really cool data
ASCII
DATASET POLYDATA
POINTS 5051 float
14.475314 -15.130607 14.563802
14.451193 -15.125141 15.07552
14.472703 -14.72328 14.695414
15.240545 -16.72606 16.934795
14.770741 -15.791058 14.976747
15.14168 -16.25114 15.412333
14.861023 -16.168987 16.554913
14.982989 -16.184805 17.314499
14.837768 -15.381635 13.940645
14.6005745 -15.300082 14.636415
14.66076 -15.436422 15.289491
14.604509 -15.5005 16.417028
14.825152 -15.5221815 17.393307
15.191028 -15.672206 17.920572
14.912318 -14.61988 13.827699
14.565615 -14.616673 14.574787
14.618553 -14.605364 15.289408
14.743457 -14.648331 16.333872
14.990708 -14.686839 17.305809
15.2661495 -14.986329 17.956646
15.181592 -13.996325 13.695539
14.870662 -13.963058 14.620254
15.097625 -13.707137 15.456589
15.096115 -14.020136 16.575207
15.266505 -14.004177 17.173647
15.432775 -6.006905 17.957466
15.458668 -6.051615 18.109095
15.386988 -5.284187 17.827423
15.37037 -5.038223 18.19192
15.385499 -5.041662 18.944216
15.419583 -4.1593757 17.72216
15.182 -4.457782 18.562782
15.207896 -4.681145 19.08038
15.319328 -3.4681313 18.024227
15.15572 -3.416283 18.518848
15.1176605 -3.400007 19.463594
15.265152 -3.3246007 20.22547
15.281935 -3.110829 18.149464
15.3200035 -2.692889 18.703367
15.214992 -2.494649 19.487164
15.304117 -2.4495547 20.382475
15.356109 -1.8896767 19.762497
15.368171 -1.785901 20.23603
16.359632 -18.325016 11.877966
16.292934 -18.352804 12.475114
16.365107 -17.915009 11.611604
16.296219 -17.421545 13.171703
15.58931 -16.769455 15.87042
15.748398 -17.016972 16.339605
15.616865 -16.79137 17.37996
15.889549 -16.733906 17.800236
15.731794 -16.553364 13.995552
15.406795 -16.350845 14.362504
15.350254 -16.477468 15.709047
15.431842 -16.629791 17.46212
15.675247 -16.300268 18.050528
15.451574 -15.645275 13.413716
15.557664 -15.648979 18.248703
16.189407 -15.337429 18.739359
15.734978 -14.467716 13.092092
15.561307 -14.274786 17.585335
15.731273 -14.537251 18.13749
15.781497 -13.908873 13.239083
15.556778 -13.863791 13.414643
15.371169 -13.409514 14.257085
15.788243 -13.65417 17.445097
16.007946 -13.982175 17.803087
15.949997 -13.293652 13.764085
15.412125 -13.357031 14.762322
15.528622 -13.174092 15.615113
15.898 -12.975451 16.455051
16.002758 -13.1442175 17.024471
16.158163 -6.891972 17.123396
16.145971 -7.03748 17.525148
15.846564 -6.916685 18.614134
15.982518 -6.8519144 19.198149
15.94945 -6.2125926 16.94658
15.651379 -6.2922606 17.61911
15.707988 -6.6238875 18.432425
15.849932 -6.263644 19.457584
16.23394 -6.3574815 19.844873
15.783986 -5.566541 17.009165
15.529299 -5.4000807 17.480467
15.626799 -5.3676386 19.501411
16.018728 -5.039631 20.465906
15.918533 -4.582823 17.096277
15.613219 -4.648011 17.440262
15.563817 -4.2748895 20.151798
15.848623 -4.511103 20.90844
16.360638 -3.917334 21.858318
15.88979 -3.395685 17.333553
15.564771 -3.6529436 17.639984
15.445446 -3.7205217 20.607418
15.751059 -3.4516644 21.23702
16.300722 -3.2972434 22.05971
15.720813 -2.8840787 17.890673
15.507626 -2.521996 18.455793
15.771249 -2.539649 21.426136
16.133724 -2.2558281 22.097475
15.864728 -1.7874801 18.910275
15.620763 -1.5365152 19.574526
15.570341 -1.544273 20.450111
15.86896 -1.5171926 21.315184
16.26526 -1.5046978 22.210693
15.932447 -1.1510303 19.730959
15.871268 -1.1691757 20.442455
16.217327 -1.0669644 21.575943
16.364628 -1.0932989 22.154085
17.218409 -19.618586 11.959468
17.271244 -19.147764 11.035734
16.917532 -19.283937 11.739864
16.769545 -19.111408 12.3924055
16.896807 -19.02873 13.002089
16.913506 -18.310396 11.078102
16.55596 -18.437117 11.623283
16.778069 -17.757547 11.199622
16.563757 -17.61455 11.540086
16.49559 -16.811512 13.404701
16.819115 -17.078152 14.955597
16.366966 -17.14027 15.895668
16.22045 -17.264874 16.459475
16.606752 -17.161102 17.470764
16.616909 -16.835402 18.01155
16.793627 -17.169127 11.449337
16.54203 -16.48176 18.38298
16.613663 -15.517597 12.785868
16.302593 -14.698927 12.844014
16.690346 -14.523531 19.135077
16.297508 -13.722081 13.147534
16.370422 -13.484997 17.656178
16.493803 -13.744206 18.348818
17.385735 -13.521998 19.953236
16.30226 -12.947285 14.639656
16.342876 -12.668929 15.698693
16.629532 -12.565203 16.475094
16.969662 -12.984715 17.782598
17.380312 -12.485857 18.561056
17.333832 -11.927667 20.690712
17.106773 -10.782259 9.842106
17.137087 -10.945511 10.326048
17.365276 -11.503073 21.293066
17.234678 -10.141755 9.157044
16.895271 -10.322052 9.697281
16.85127 -10.419928 10.49769
17.047354 -10.360141 11.06887
17.308035 -9.950148 11.665954
17.36669 -10.706026 20.860962
17.426918 -10.679985 21.474718
17.17983 -9.45096 9.10201
16.828485 -9.541753 9.662659
16.68542 -9.577601 10.448286
16.85869 -9.565753 11.255905
17.199366 -9.710811 11.683233
17.258816 -8.951091 9.099552
17.051128 -8.713356 9.671779
16.961596 -8.680159 10.4948845
17.041424 -8.777261 11.161328
17.115126 -8.08869 17.704672
17.107656 -8.239747 18.491148
17.20158 -8.291323 10.412855
16.774113 -7.25414 16.8252
16.507578 -7.476279 17.414595
16.611324 -7.1775517 19.760983
17.016453 -6.4231706 15.940017
16.700912 -6.5142875 16.414936
16.391346 -6.0163174 20.52975
16.737686 -5.926787 20.942886
17.282352 -5.0572925 15.317439
16.950207 -5.332407 15.706874
16.584373 -5.1948195 21.378138
16.90193 -4.912656 21.95113
17.27334 -4.4866314 15.241153
17.005457 -4.60115 15.628768
16.762707 -4.540201 21.963303
17.06996 -3.7443652 16.005518
16.529757 -3.6218781 16.995169
16.575106 -3.233386 22.360188
17.009409 -3.0855496 22.757763
16.354475 -3.0608783 17.37214
16.382893 -2.5996656 17.814611
16.483095 -2.266709 22.515297
16.773613 -2.204786 22.788172
16.608704 -2.20583 18.09402
16.413538 -1.6292765 18.77031
16.458876 -1.733362 22.590338
16.852072 -1.4527829 22.859627
16.420473 -1.2748628 19.159922
16.431004 -0.9697751 19.719923
16.483341 -0.7857337 20.60659
16.66015 -0.63493335 21.493769
16.71056 -0.789022 22.25433
17.020624 -1.0104889 22.777464
17.015146 -0.4165682 21.762062
17.018389 -0.40820372 22.009771
17.821175 -19.676847 11.156644
17.77743 -19.855997 11.688588
17.589367 -19.789959 12.269645
17.722816 -19.258297 10.819037
17.458708 -19.603682 11.398676
18.154936 -18.511005 10.299489
18.075256 -18.632944 10.457168
17.983109 -18.012905 14.309238
17.389322 -17.78619 10.700899
17.320621 -17.325531 15.614065
17.421534 -17.31682 16.321638
17.909325 -17.12406 17.012106
18.160782 -17.606422 18.289652
18.059855 -17.280203 19.259333
18.161837 -17.05068 20.243908
17.91309 -16.6739 10.234142
17.806808 -16.692387 19.813816
18.245821 -16.32421 20.775084
17.946573 -15.93262 11.444553
17.4666 -15.757454 19.788052
18.234512 -15.349268 21.055075
17.612175 -14.302303 12.950558
17.827257 -14.775736 20.398964
17.557135 -13.775925 13.259308
17.987932 -13.193672 20.678623
18.162832 -13.133059 21.318945
17.664444 -12.882488 13.870308
17.416876 -12.4080515 17.076221
17.481522 -12.835174 18.698454
17.571213 -12.551476 19.165169
17.607918 -12.132254 21.492985
17.894014 -12.130079 22.167608
18.19667 -12.043155 22.897772
17.895903 -11.02151 9.264045
17.77341 -11.32222 9.809947
17.600273 -11.221831 10.592711
18.014866 -10.937291 11.479033
17.80283 -12.28812 15.730897
18.191553 -11.370352 19.036705
17.786314 -11.842869 19.63186
17.646446 -11.153441 22.119066
18.190987 -11.6841345 23.038927
18.450214 -11.408721 24.415827
18.436026 -11.477264 25.089073
17.804203 -10.340121 8.930198
17.504316 -10.200401 11.72581
18.153273 -10.154053 17.562113
18.104267 -10.420372 18.835136
17.882793 -10.440323 19.65546
17.513294 -10.980971 21.835476
17.872028 -10.5340185 22.479342
18.3587 -10.533365 23.53782
18.39406 -10.684104 24.64927
17.632317 -9.389281 8.767839
17.526176 -9.468314 11.91674
18.016693 -9.703058 17.768398
17.853819 -9.277272 19.87193
17.969494 -9.206321 20.829752
17.774935 -9.812734 21.268002
18.04302 -9.459666 22.063168
18.22405 -9.929291 22.91858
17.837076 -8.838088 8.7627325
17.36388 -8.352824 9.563464
17.691488 -8.460295 16.883091
17.771467 -8.455496 20.49663
18.177586 -9.0726 21.978006
17.79777 -8.281391 9.154121
17.592875 -8.139982 9.629267
17.527895 -8.068097 10.355801
17.761547 -8.192915 11.3246155
17.69648 -7.146724 15.761924
17.583923 -7.503633 20.237358
18.059347 -7.8857937 20.812439
17.407576 -5.5058985 15.195888
17.449577 -5.646902 21.635414
17.873892 -5.0995693 22.46982
17.709988 -4.5822287 15.010569
17.440315 -4.501714 22.443182
17.568998 -4.2046423 22.664078
18.077728 -3.8074408 14.995149
17.637615 -3.5932992 15.356254
17.597086 -3.5219746 22.919334
17.596563 -3.2972083 15.917185
17.455294 -3.1567848 16.72172
17.296885 -2.407649 17.844273
17.808372 -2.6404648 23.222603
17.068676 -2.2069502 18.199165
17.410278 -1.6567305 18.909624
17.535791 -1.5202898 23.15197
17.058619 -1.1050926 19.52833
17.156912 -0.51800925 21.195002
17.610832 -0.4467426 22.488792
17.569157 -0.8658954 22.911026
17.403044 -0.4390059 21.113745
17.449873 -0.33988357 21.664555
17.51677 -0.36835092 22.079779
18.37228 -19.735115 11.029876
18.350073 -19.936522 11.658061
18.49245 -19.886679 12.315813
18.100353 -19.69625 12.80138
18.431707 -18.78738 10.331486
18.23373 -19.281147 10.683646
18.420448 -18.90908 13.8081665
19.24741 -18.927488 18.831236
19.180714 -18.824373 19.530918
19.252382 -18.788944 19.89789
18.88978 -17.903793 17.87972
18.701715 -18.196888 18.507786
18.740898 -18.314629 19.480844
18.942286 -18.294556 20.22022
19.050417 -18.045425 20.823683
18.682571 -17.57688 9.831134
19.061827 -17.658308 14.536143
18.877325 -17.598553 17.903252
18.44115 -17.483425 19.572906
19.01296 -17.241158 21.28883
18.434387 -16.952795 9.803651
18.59137 -16.337282 21.292244
19.142855 -15.937412 22.095774
19.436699 -15.451222 9.191627
18.712528 -15.696055 21.400286
18.953827 -15.391262 21.958334
19.439413 -14.421349 8.794122
18.631815 -14.779455 11.788785
19.253202 -13.041273 9.902251
19.259634 -13.186298 12.052791
18.73244 -13.095941 22.484064
19.26836 -12.910914 22.878237
19.32696 -13.241941 25.88086
19.281776 -13.107158 26.270489
18.695293 -11.884469 9.894514
19.388844 -12.705413 13.19561
[...]
POINT_DATA 5051
SCALARS features_00 float 1
LOOKUP_TABLE default
0.6023885 0.6052974 0.62242997 0.5906128 0.54795617 0.5341146 0.62758636 0.6384686 0.6074741 0.59039855 0.59217566 0.65571404 0.6652222 0.62963885 0.6523272 0.63076645 0.60964394 0.61636746 0.558105 0.5538776 0.6516955 0.64248323 0.5871619 0.5086886 0.43925378 0.44358766 0.4431694 0.44946364 0.461538 0.45364022 0.46676934 0.48899376 0.4780688 0.4958155 0.5267375 0.5766579 0.55941916 0.5160105 0.572467 0.6214553 0.62518567 0.64001 0.6479418 0.58966047 0.5376495 0.5546822 0.3882028 0.52998173 0.52867883 0.5695492 0.5523825 0.407001 0.45984584 0.54223937 0.591205 0.5824529 0.60915655 0.58959323 0.47362795 0.6200478 0.42801395 0.43287286 0.6049396 0.6270609 0.62229216 0.33934397 0.3361286 0.5680866 0.6021595 0.5179418 0.38228595 0.31436405 0.40054572 0.41412878 0.4314968 0.37558326 0.4077767 0.44018072 0.4399549 0.3714155 0.29328582 0.4072411 0.43205863 0.4076644 0.33420998 0.40722048 0.43594706 0.4336816 0.3497072 0.3757633 0.4234464 0.46058667 0.4632545 0.443801 0.44460124 0.48560914 0.5538929 0.57937515 0.6089009 0.59163773 0.6365831 0.660722 0.6893722 0.7106849 0.640086 0.6684107 0.7130364 0.73018384 0.7140968 0.66798973 0.7008095 0.6852617 0.67456603 0.6212468 0.6288016 0.55763435 0.51235455 0.37001523 0.3391616 0.43424582 0.4651184 0.4281913 0.43126237 0.4313165 0.43476662 0.47898486 0.5553497 0.25543255 0.5416224 0.25620672 0.22484595 0.08137639 0.5070678 0.4261816 0.31244597 0.16033414 0.0031450838 0.2423552 0.7912639 0.76371664 0.276846 0.7555646 0.8388593 0.82661796 0.72542524 0.61283803 0.25349304 0.2628008 0.732896 0.83560085 0.898489 0.7796781 0.63014007 0.68963325 0.73831505 0.7845719 0.7426685 0.2904287 0.28909537 0.6991781 0.32867664 0.3693123 0.2232194 0.31651592 0.35848212 0.25605753 0.22829488 0.30941242 0.33913723 0.29120785 0.30728608 0.32727718 0.34633267 0.3298715 0.3316198 0.36519998 0.4577203 0.481863 0.39874882 0.4458686 0.6141859 0.62601185 0.48065406 0.5623257 0.6908081 0.7161325 0.59130293 0.6252586 0.66262484 0.7000958 0.7278762 0.72638744 0.6977288 0.7062386 0.6691409 0.6869883 0.70215505 0.6459129 0.69236577 0.5277201 0.5578198 0.09597739 0.54699254 0.18083385 0.2263217 0.09970409 0.26529962 0.34502065 0.37650052 0.40716416 0.28784695 0.32354352 0.21615419 0.2075014 0.21505502 0.3677777 0.097041935 0.4179186 0.14267431 0.1506564 0.35466433 0.17561549 0.030357316 -0.023422264 0.2514441 0.24187669 0.231712 0.65739655 0.6903358 0.6910971 0.5650332 0.21572033 -0.052162156 0.028533667 0.27931634 0.2500469 0.29094023 0.35415527 0.64639175 0.57793343 -0.048129246 3.2782555e-05 0.12415327 0.2742505 0.22133347 0.20686753 0.2784672 0.63839275 0.527746 0.009183094 0.13689382 0.1734135 0.2166069 0.16150787 0.14420359 0.59775996 0.67353404 0.16884796 0.08778144 0.15122809 0.59790075 0.6320332 0.6281072 0.55440813 0.17529163 0.048270755 0.040388614 0.25751147 0.23481281 0.28999507 0.3089216 0.33184892 0.35245365 0.30269417 0.3047645 0.41528723 0.28421906 0.2805333 0.39036798 0.5271417 0.4641463 0.4990747 0.68557715 0.5793798 0.6509831 0.69021714 0.69995296 0.620651 0.66187334 0.6854944 0.6257208 0.6423976 0.6055641 0.6342225 0.52822644 0.6053719 0.36344457 0.44654578 0.4834119 0.49339956 0.26158318 0.3986953 0.46642047 0.47568345 0.45987928 0.37243745 0.06285081 0.2395908 0.42497587 0.40855366 0.33273005 0.34159225 0.35270542 0.13035165 0.2969247 0.27717003 0.18108322 -0.18038508 0.007596433 -0.33959132 0.13421807 0.120300844 0.53189844 0.55582565 0.49403128 -0.38118133 0.1763779 0.21826194 0.23384385 0.30436623 0.40604466 0.5101244 0.5152806 0.6077348 0.5761689 0.48261327 0.37781605 0.011069031 -0.103539675 0.39607063 0.42491794 0.4599927 0.39272475 0.35149127 0.20077565 0.26242477 0.329117 0.35417876 0.4041796 0.50849867 0.5387416 0.24636811 -0.033739883 0.062331032 0.13317525 0.15803187 0.23225492 0.28819746 0.31949678 0.39282647 0.5055616 0.30971658 0.10189951 -0.08172569 0.08621845 0.08020768 0.26562363 0.28893754 0.41619068 0.4781889 0.266256 0.28101358 0.14711621 -0.073054 0.062442943 -0.039934162 0.015541203 0.044524312 0.15981583 0.2517498 0.24282914 0.24512497 0.31527025 0.28757203 0.35355115 0.27518842 0.5365967 0.408233 0.32999152 0.47307208 0.49038154 0.5047698 0.60564214 0.61156774 0.64027774 0.53807366 0.5211481 0.43874452 0.54036933 0.39657757 0.35200107 0.25434226 0.44069743 0.49961093 0.4917106 0.46314484 0.33666378 0.37856504 0.23769103 0.48657933 0.44913462 0.27382392 0.22852728 -0.23536314 -0.036228538 0.4241147 0.41245008 0.3937682 0.37204698 0.386935 0.22870433 0.33255142 0.32865658 0.22767025 0.5194544 0.56399983 0.23665136 0.2895243 0.5353671 0.57201904 0.55534124 0.5151815 0.52957654 0.46880025 -0.05263765 0.28104633 -0.20915972 -0.3097778 0.44865683 0.38672164 0.0980842 0.2308209 -0.098620236 -0.24254832 0.36357862 0.30085632 -0.18040013 0.2964422 0.3155404 0.30299377 -0.0991907 0.1042831 0.30831257 0.3061067 0.29444957 0.29193512 -0.009769395 0.26711085 0.31618947 0.32451123 0.35416654 0.026699573 -0.05714955 0.014512867 -0.002963541 0.24427795 -0.0478261 0.0010607764 0.16017456 0.27358663 0.12295358 0.011441115 0.2561458 0.32003975 0.18748167 0.078515336 0.19908242 0.16061597 0.3005516 0.2667169 0.30376348 0.3813827 0.40278867 0.3965903 0.36342156 0.31961012 0.24820207 0.5170256 0.4648437 0.40497464 0.07046816 -0.11204075 0.036368676 0.17748302 0.4106332 0.48996398 0.4356866 0.27767694 0.38350016 0.4815587 0.42944077 0.34683365 0.4821871 0.46271947 0.2227408 0.3993071 0.4087154 0.077453926 0.4861828 0.5543756 0.5448748 0.32581198 0.09246489 0.5341743 0.5010657 0.21115015 -0.07059535 0.30053362 -0.020460403 0.04754471 -0.25396615 0.26282948 0.12943521 0.21425387 0.18119475 0.18788616 0.2101177 -0.1504849 0.1322128 0.18520732 0.2887891 0.18721068 0.18457472 0.1595392 -0.43615508 0.034760512 0.12618315 0.28554857 0.2385425 0.19350499 0.01738022 0.23215121 0.21483192 0.19356474 0.22834516 0.26829606 -0.13158578 -0.053038858 -0.14106108 0.35427797 0.36914036 0.012971193 -0.054563046 0.3262676 0.4001999 0.4493482 0.4604614 0.34709215 0.048779257 0.10343851 -0.030708224 -0.24070835 0.14912394 0.3523043 0.44962314 0.4949218 0.4994193 0.16791695 0.10385594 -0.022927988 -0.1394122 0.19580829 0.18511856 0.40249723 0.45635128 0.5084097 0.49290222 0.1252782 0.032165803 0.28321937 0.44797078 0.46832967 0.09485317 0.16392973 0.3156858 0.34823677 0.37577695 0.35049295 0.3362435 0.2946786 0.09451931 0.41348904 0.35299385 0.32386 0.35589862 -0.15205133 -0.17818134 0.29059613 0.50055623 0.44431376 0.33379948 0.5036757 0.50054896 0.24491395 0.26225725 0.48611236 0.19042383 0.4080919 0.10554668 0.27533317 0.27808547 0.47386828 0.46333945 0.3259936 0.4520122 0.4009692 0.22321063 0.31392342 0.046758242 0.0032942593 -0.012745339 0.13641122 0.018298026 0.12178799 0.091956586 0.14355361 0.07177365 0.16320696 -0.60745335 0.12697078 0.08391854 0.1052966 -0.57137436 -0.20339146 0.15582922 0.088586405 -0.058548495 0.005475814 -0.5618273 0.038626812 0.18367055 0.14018865 0.031776316 0.05434355 0.16688907 0.21395652 0.14539272 0.10609176 0.14722198 -0.109046414 -0.05468321 0.12517466 0.13110602 0.186295 0.26129627 0.2713328 -0.15116653 -0.255839 -0.57348084 0.06714314 0.073475994 -0.0031989068 0.06519818 0.2454493 0.32088932 0.4622223 0.042854674 0.11826579 -0.045277253 -0.20650154 -0.5393958 -0.21260212 0.119560584 0.018828228 0.29118988 0.3397048 0.45169765 0.42293078 0.1710901 0.13180399 0.007609235 -0.038477376 0.13073613 0.28974223 0.28708127 0.37770602 0.42342633 0.42312554 0.12256754 0.1380294 0.10650278 0.064082205 0.115748234 0.22994259 0.12275461 0.18278708 0.261102 0.26781905 0.20158316 0.23678128 0.26854748 0.27088183 0.21959472 0.6320356 0.4904225 0.5083699 0.44534656 0.513904 0.50125533 0.24219288 0.14977556 0.3097813 0.26698613 0.22681658 0.2088725 -0.20394933 -0.12678175 0.21454753 0.16852778 0.46953467 0.40358716 0.32438922 0.25926477 0.16225044 -0.029102802 -0.17339246 0.18206134 0.50748193 0.50229007 0.47635853 0.17111558 0.50038993 0.13926515 0.4804272 0.062194526 0.22313984 0.4161083 0.007573791 0.07196019 0.18668093 0.042081177 0.28335133 -0.12731338 0.006913021 -0.0051688403 0.019659072 0.045189437 0.20416778 -0.0031187832 -0.02500175 0.05069278 0.13755178 0.12016586 0.022027448 0.0879764 0.052771598 -0.147502 0.053897437 -0.0053207614 -0.055190638 0.102035716 0.09853453 -0.08927577 -0.106044 0.13572925 -0.013413619 -0.061173324 0.054309763 0.0803479 0.086159766 0.017752 0.014759418 -0.03046742 4.823506e-05 -0.026765727 -0.255212 0.092332676 0.20709084 0.023999266 -0.0028750226 0.11363235 0.07579319 0.2460427 0.33255243 0.086976364 0.12415189 0.0829437 0.32322425 0.3893445 0.39235425 0.2293075 0.17610642 0.17078832 0.008377774 0.33771685 0.4053269 0.3049172 0.25039256 0.3562923 0.018692337 -0.038143996 0.32676098 0.32406926 0.31094304 0.2835482 0.08899241 0.10444686 -0.14173207 0.042628042 0.36782426 0.330441 0.25533858 0.25759596 0.22465132 0.05858487 0.12127906 0.09437345 0.05298886 -0.13251643 0.0681013 0.12128541 0.21521866 0.20585418 0.1745432 0.24198352 0.10564634 0.08896527 0.005253246 0.02087792 0.14201519 0.17887229 0.12821153 0.19585899 0.21876997 0.26650608 0.29055685 0.21969944 0.17575482 0.28359208 0.2827986 0.23600078 0.6050807 0.57141566 0.594372 0.61834514 0.6016655 0.54393804 0.52504086 0.60999733 0.640062 0.56190765 0.5514846 0.5170893 0.56250334 0.5837491 0.62215954 0.42901903 0.4069143 0.49506205 0.6001801 0.5645927 0.30009976 0.5507484 0.20304051 0.4893551 0.02754943 0.46635145 0.5244258 0.45850152 0.4148172 0.34152406 0.15939856 0.03250864 -0.11511195 0.05197358 0.35180283 0.41438138 0.46607357 0.48031425 0.459899 0.036306813 0.10997887 0.28986254 0.32578754 0.35130918 0.3740077 0.48377827 0.4535432 0.07939666 0.1820166 0.09387309 0.21107423 0.25758427 0.29878312 0.29726326 0.40337798 0.061242856 0.23279467 0.23283821 0.21069212 0.061451588 0.20299979 0.16163199 0.22359994 0.6124618 0.6573675 0.6514279 0.36376438 -0.0024569556 0.10899708 0.07927255 0.022526827 0.035519127 0.048445944 0.4772328 0.60593534 0.67911446 0.6662692 0.2447449 0.036379173 0.05270049 0.061718047 0.33070287 0.51678014 0.6248579 0.6368785 0.183549 0.06960187 0.041156445 0.2805059 0.42337814 0.4822151 0.116404906 0.06466732 0.010300592 0.014263585 -0.22212757 0.008736088 0.020581998 0.058421623 -0.03560118 -0.1043471 0.019177355 0.06881996 0.06356846 -0.06074355 -0.014110485 0.07228006 0.098237485 0.06467792 0.042174976 0.036443368 0.011048602 0.06487726 0.005213119 0.20847806 0.19005327 0.024034992 0.31224337 0.29841864 0.17987338 0.39715534 0.24112768 0.023269847 0.40359062 0.39629126 0.37285197 0.33851582 0.1307609 0.20039193 0.28727242 0.37523308 0.35120153 0.4665687 0.4187358 0.063720286 0.25583532 0.3018556 0.32601032 0.43055785 0.33389091 0.031970143 0.27833462 0.36878452 0.37616056 0.32444835 0.38325834 0.31065387 0.24624214 -0.0072374195 -0.12804073 -0.022617303 -0.0075442195 -0.15710567 0.2528815 0.22286797 0.17884928 0.33224484 0.39321166 0.40719023 0.38238236 0.24998388 0.15907234 0.10641577 -0.0040317476 -0.0960584 -0.072636954 -0.015486948 0.020886373 -0.02579099 -0.009153917 -0.16097678 -0.022689834 0.111189224 0.22332981 0.2954055 0.30338097 0.38668445 0.4004783 0.2352167 0.31340587 0.24839595 0.21058387 -0.048583902 -0.011975601 0.1080358 0.14279443 -0.16707627 -0.10135298 0.22890466 0.27280605 0.23817496 0.16600637 0.1636512 0.31313187 0.32995883 0.4161582 0.40208215 0.38076898 0.25258288 0.2952595 0.4172299 0.38720942 0.22014518 0.5351625 0.52435416 0.5196892 0.4484594 0.45594049 0.5072851 0.5223524 0.61673385 0.6004268 0.5503869 0.5312048 0.5391989 0.6290413 0.6255527 0.58620715 0.5407779 0.56852823 0.5623787 0.5244569 0.5200364 0.52433425 0.5457573 0.54235893 0.53086454 0.56256914 0.59996307 0.5224933 0.56711173 0.57341444 0.6120914 0.63625324 0.4805787 0.5086612 0.61942124 0.6396004 0.54793864 0.60061777 0.4234575 0.5492859 0.5925569 0.6091603 0.31029546 0.4066267 0.31506526 0.394669 0.48081687 0.5591091 0.57858884 0.56180835 0.4109264 0.34752223 0.26713467 -0.13528891 -0.12189886 0.027829655 0.23400372 0.29237536 0.35022438 0.4956623 0.4667792 0.44646835 0.42726758 0.37320697 0.35569268 -0.033944502 -0.09457854 0.12256109 0.31724244 0.40379238 0.12160011 0.23518637 0.19422011 0.44728786 0.5242757 0.5696841 0.37458882 0.18427114 0.20127007 0.61283785 0.60833013 -0.15994109 0.62465703 0.5889782 0.031488523 0.30523556 0.36068994 0.061739925 -0.03646852 -0.014588289 0.096613824 0.050986595 0.006018106 0.061689317 0.092748344 0.08832143 -0.010484666 0.11604911 0.11439122 0.06498268 0.03926482 0.07866013 -0.061508056 0.18501505 0.09698959 0.08988191 0.18525209 0.18537228 0.35184708 0.2909823 0.28682134 0.2033241 0.4854262 0.20341393 0.49198756 0.46095318 0.20139083 0.25067618 0.44208372 0.076042324 0.03940015 0.34318593 0.29000798 0.30641952 0.27219832 -0.03135265 0.32131702 0.15399405 0.051027812 0.16994797 0.060916916 -0.13218871 -0.021383993 0.07803083 0.114054814 0.26041508 0.30740803 0.34026995 0.040744364 0.31801534 0.29096293 0.38203797 0.037005942 0.25231844 0.12081137 0.17184225 0.0738354 0.018544508 0.2708553 0.283157 0.42077994 0.3780995 0.51734316 0.56419325 0.25971752 0.13611317 0.33557194 0.45974135 0.34720352 0.47235262 0.51388454 0.52570474 0.43205392 0.6174642 0.62687576 0.5560925 0.45537436 0.41549963 0.47709996 0.51037806 0.50051033 0.56919014 0.5833553 0.56408453 0.62812734 0.63904643 0.6301105 0.58809495 0.49661332 0.6215198 0.65398335 0.64693284 0.5969307 0.64754164 0.64050484 0.6557187 0.6777642 0.66780466 0.47944906 0.51393604 0.5292183 0.48016942 0.5035851 0.4682914 0.48476362 0.542331 0.5872574 0.619514 0.49303845 0.6397296 0.67508113 0.30255726 0.40246105 0.675408 0.20479193 0.66014904 0.31502745 0.40789762 0.52682906 0.60491294 0.6243565 0.17024499 0.13390444 0.5973655 0.18395096 0.26697665 0.35284537 0.5783729 -0.0395964 0.022805437 0.18296032 0.33738756 0.3285025 -0.11092359 -0.09394206 0.10361134 0.26369017 0.110252365 0.43253893 0.50305927 0.23950115 -0.21122736 0.06483481 0.097151764 0.09239965 0.13678461 0.026613489 0.5265174 0.04280275 0.07952411 0.09812707 0.5534071 0.14746031 -0.1762564 0.5058653 0.46267632 0.09495995 0.51172805 0.44834262 0.030330777 0.24045578 -0.010516591 0.00796935 0.09497239 0.18029228 -0.06495959 0.061775252 0.08531943 0.04959329 0.05779407 0.12475169 0.10580965 0.10596326 0.09551094 0.055698298 0.032054007 0.01529476 -0.042065293 0.43548727 -0.079223946 0.015350811 0.23610571 0.32706785 0.15934446 0.14062679 0.12169342 0.0867738 0.2729306 0.1436601 0.39331976 0.05504772 0.45814332 0.009760416 0.06014662 0.46303767 0.13884366 0.16264996 0.4700706 0.44492564 0.23079056 0.17743558 0.34490523 0.28231305 0.22658888 0.06085361 0.2887823 0.31125677 0.21934618 0.101839416 -0.05434347 0.13341941 0.25331762 0.24381693 0.33941212 0.14960721 0.0016921088 0.5359274 0.5846942 0.4203154 0.03718309 0.12488528 0.41565225 0.23262458 0.25853455 0.59089863 0.19495848 0.3266787 0.41124928 0.3549633 0.41956687 0.29954603 0.28045723 0.4819818 0.52118087 0.3745467 0.3864255 0.62926006 0.64295566 0.451163 0.31471276 0.3442644 0.3196295 0.5617616 0.5886379 0.4344541 0.6516454 0.6502336 0.60494107 0.6235826 0.67558765 0.6602978 0.587278 0.65502363 0.6452192 0.39922315 0.46411443 0.45937845 0.40660414 0.3915044 0.4290622 0.45708823 0.3400069 0.44878381 0.6593436 0.22643198 0.7107971 0.58486074 0.2025025 0.08731885 0.67675936 0.65442 0.47273344 0.6038594 0.6260582 0.072468966 0.18978827 0.46220118 0.3259965 0.23179546 0.18100476 0.57235277 -0.23196909 -0.041965008 0.14867769 0.27464193 0.22928077 0.48215774 -0.23858047 -0.17461784 0.27473497 0.50315076 0.06240423 -0.040928766 -0.16431259 -0.15250668 -0.11633413 -0.08461965 0.00641644 0.034040634 0.15201612 0.48218623 -0.0014284998 -0.24836425 -0.096188605 -0.23495983 -0.04453087 -0.10641405 0.043474797 0.48206437 0.20064764 -0.18391933 -0.32941014 -0.1615355 0.15028477 0.07227638 0.11768094 0.031578124 0.2227019 0.0073162355 -0.09613012 0.5613882 -0.15748695 0.020585872 0.09352605 0.06385793 0.5692254 0.08600933 0.02380645 0.14764673 0.13280168 0.26767504 0.22663763 0.23386192 0.19316608 0.39204013 0.39102018 0.4184361 0.20979214 0.19347486 0.13550092 0.05537215 0.45051187 0.50876474 0.49441898 0.36106887 0.1875694 0.15810752 0.100437246 -0.033463553 0.5061523 0.5218042 0.5832907 0.45485008 0.32165742 0.3211491 0.37810993 0.4598323 0.6643084 0.6401504 0.4967255 0.12601314 0.15114713 0.19526869 0.73926413 0.6805033 0.6030654 -0.2341528 -0.22479779 0.6685759 0.66043425 0.29376274 -0.08818877 -0.047541626 0.32783657 0.030063199 0.049938455 0.39013958 0.10326368 0.3205134 0.1309781 0.22741312 0.22453326 0.048596546 0.054094806 0.0931663 0.1646761 0.3823959 0.11294471 0.095432244 0.097158685 0.32677072 0.3124934 0.41030964 0.4924911 -0.2857667 0.025638148 0.3428989 0.42287567 0.54266644 0.26568168 0.3278293 0.2387819 0.091343686 0.31602743 0.32898355 0.32959297 0.28241667 0.23124847 0.45258847 0.47319126 0.4798237 0.62256515 0.6352374 0.45832723 0.17664218 0.19052719 0.29128832 0.3686484 0.3545875 0.32328388 0.43523318 0.45987624 0.48255742 0.65127933 0.61398077 0.5417268 0.42340818 0.5317708 0.5488806 0.4180007 0.5267862 0.59328425 0.5771658 0.518768 0.25791582 0.35244417 0.41021362 0.3959756 0.4412525 0.2641054 0.29434085 0.26890036 0.4665963 0.6072217 0.36413103 0.117182985 0.091879986 0.23125388 0.171773 0.18299362 0.28208798 0.58067775 -0.019977711 0.36127543 0.35857958 0.50789523 -0.1574223 -0.03740464 0.3232792 -0.13896935 0.26986328 0.4761535 -0.22148028 -0.21768807 -0.24508384 -0.18075919 -0.17623757 -0.07112925 -0.11170482 -0.12080121 -0.048056647 0.4937821 0.1860788 0.20261171 0.004973337 -0.10934255 -0.14280428 0.3467452 0.41781288 0.22946075 -0.2773889 -0.2053148 -0.24120507 -0.17499767 -0.15215644 -0.13930428 0.19254258 -0.02086726 0.3823027 0.4116211 0.10826442 0.33959046 0.49510464 0.5279367 0.5378803 -0.045083564 -0.043140076 0.4398548 0.6130624 0.6148888 -0.028703341 0.31211314 0.5111073 0.63589364 0.62096953 0.1894438 0.085696705 -0.34140426 0.56217104 0.6487774 0.6350801 0.4248284 0.35387796 0.26023436 0.15512912 0.15564266 0.2593878 0.3686611 0.29442006 0.26821065 0.3518279 0.22252195 0.19770259 0.49275663 0.49365097 0.35511038 0.18567988 0.50535035 0.70760953 0.60563743 0.2123569 0.0061071813 0.3400029 0.39986336 0.787434 0.6872983 0.28407982 0.054900374 0.03137972 0.20521629 0.27666557 0.8112662 0.7864709 -0.2251436 0.7498522 0.6976365 0.6413088 0.5734788 0.542526 0.07060422 -0.040857267 0.6985419 0.6619723 0.61789006 0.17701802 0.055599038 0.07958251 0.12275477 0.17718199 0.17944136 0.057731945 0.23828077 -0.009367868 0.23759452 0.3878966 0.2179432 0.417968 0.45802885 0.1891571 -0.3293259 0.48970032 0.5076097 0.16087882 0.34709546 0.2256231 0.10741998 0.013268303 0.24176593 0.49470687 0.5120702 0.5806038 0.5939251 0.36231235 -0.024906255 0.033185847 0.16084802 0.1714786 0.37315038 0.38969454 0.37195557 0.30352736 0.23067935 0.2163138 0.34533074 0.47758287 0.51793534 0.52162856 0.607847 0.5542576 0.4809804 0.42485088 0.3295985 0.45762444 0.35397464 0.48084223 0.4270718 0.43196368 0.4651512 0.41585177 0.3342626 0.2277165 0.32012618 0.36699435 0.36499673 0.51834834 0.5545904 0.44896314 0.13890982 0.121676885 0.22073406 0.29468337 0.43786836 0.47860682 0.50592023 0.38814902 0.10544674 0.7681572 0.35121244 0.37184596 0.3857515 0.20997275 -0.024197757 0.2262496 0.3143258 0.29095918 0.22723272 0.18744108 0.14876777 0.69781876 0.17340513 0.25831133 -0.07331614 -0.19473654 -0.09746666 0.103532284 0.29890785 0.3002298 0.2222451 0.18563388 -0.23476051 -0.21591926 -0.14904268 0.30809477 0.32394713 0.21453823 0.22871499 -0.09010132 -0.20343253 -0.19656625 -0.33883417 -0.14209846 0.283167 0.14172809 0.1190976 -0.20726876 -0.16514231 -0.07048441 -0.079333894 0.1475263 0.1073024 0.084965914 0.3821141 0.010253742 -0.10224503 -0.24725595 -0.07736212 -0.07538471 0.12875287 -0.20056841 -0.20817597 -0.21257667 -0.16080484 0.288419 0.18912403 -0.33125055 -0.31515312 -0.36626077 -0.18612398 0.20467362 0.16257043 0.2627727 0.37542