# vtk DataFile Version 2.0
Really cool data
ASCII
DATASET POLYDATA
POINTS 4955 float
-13.625155 -8.116332 -11.371073
-13.737782 -7.2813897 -12.022472
-13.856959 -7.4314237 -11.503304
-13.720779 -7.408846 -10.7518635
-13.76748 -6.847826 -11.931674
-13.850928 -6.7508287 -11.526081
-13.749744 -6.7489066 -10.886233
-13.640365 -6.158709 -11.465122
-13.62402 -4.731355 -4.985668
-13.832036 -4.1960425 -5.2220135
-13.880468 -4.2947927 -4.5567827
-13.95888 -4.1513205 -3.5680835
-13.76912 -4.035482 -2.6876435
-13.678192 -3.8263733 -5.7900596
-13.90035 -3.6222847 -5.201431
-14.143389 -3.4594789 -4.2964015
-14.160297 -3.522016 -3.4064457
-13.947022 -3.402154 -2.59288
-13.667973 -3.375606 -2.1525095
-13.979334 -2.4786677 -5.213426
-14.218596 -2.2960696 -4.437383
-14.249154 -2.6871886 -3.505166
-13.98976 -2.5413833 -2.7725039
-13.687984 -2.1499367 -2.2919104
-13.961247 -1.5676606 -5.035369
-14.124883 -1.4007845 -4.4472055
-14.087058 -1.3172524 -3.4803874
-13.757914 -0.8367863 -5.037875
-13.947755 -0.7683565 -4.5073495
-13.900106 -0.6442921 -3.6857622
-13.930238 -1.090703 -2.9386394
-13.544653 -0.11514565 -1.4389675
-13.65797 0.9419285 -1.2380922
-13.662638 0.9167387 -0.7714737
-13.717195 1.4472206 -1.1624819
-13.677862 1.5529416 -0.6457237
-13.608426 1.6977149 -0.16371024
-13.660903 2.6099007 -1.7364328
-13.820708 2.6027377 -1.1842313
-13.80899 2.6433938 -0.70169795
-13.607337 2.5477226 -0.19311926
-13.715223 3.097605 -1.1827178
-13.706451 3.1095 -0.7366106
-12.873004 -9.969238 -11.852414
-12.979023 -9.961963 -11.480613
-12.911655 -9.932574 -10.6213455
-12.8861 -9.804991 -10.197012
-12.941601 -9.403868 -12.12264
-13.2066345 -9.500636 -11.449238
-13.202395 -9.523859 -10.709907
-12.86156 -9.223173 -9.979952
-13.222246 -8.380801 -12.192033
-13.351334 -8.771562 -10.72556
-12.99846 -7.399336 -12.818776
-13.365208 -7.571933 -12.479475
-13.489326 -7.1955357 -10.312385
-13.017518 -7.19463 -9.68882
-13.196048 -6.873169 -12.632567
-13.502809 -6.6729207 -12.279309
-13.5435095 -6.99079 -10.417615
-13.097087 -6.5275497 -9.808985
-12.718612 -5.552723 -12.328136
-13.313786 -5.8433867 -11.647088
-13.360058 -6.051498 -10.581567
-12.9692955 -5.890669 -10.194348
-13.139906 -4.8227487 -5.7598896
-13.261744 -5.0028467 -5.3023953
-13.492155 -4.8933496 -4.66452
-13.357529 -4.739205 -3.5098174
-13.321968 -4.3554373 -5.918975
-13.559588 -4.5037413 -3.2218282
-13.503426 -4.2615843 -2.6046648
-13.254627 -3.999374 -2.1649184
-13.357148 -3.538026 -6.1616654
-13.358863 -3.4620686 -2.0323846
-13.443159 -2.4913661 -5.7807617
-13.166432 -2.534798 -1.8424416
-12.755557 -1.0508349 -15.416231
-12.846704 -1.0594773 -14.708895
-13.090113 -1.8879087 -5.975213
-13.291639 -1.3908799 -1.9356049
-12.700997 -0.49883974 -15.924429
-13.006618 -0.43450394 -15.307636
-12.996629 -0.4174025 -14.615282
-12.712551 -0.13395098 -13.957872
-12.818614 -0.49067062 -5.768297
-13.313637 -0.5019355 -5.2495203
-13.575941 -0.3503717 -4.7764177
-13.267284 -0.28031498 -0.69714594
-12.992974 -0.169829 -0.08368662
-12.802116 0.12031612 -15.764195
-12.928632 0.34341213 -15.383112
-12.931511 0.34094054 -14.565463
-12.802901 0.13662323 -14.120969
-13.128714 -0.082443416 -5.0257564
-13.451071 -0.19265026 -4.659275
-13.389025 -0.030018747 -3.3568656
-13.398521 0.41013008 -0.37093392
-13.254495 0.8679193 0.023979962
-12.713 0.941882 -15.237574
-12.687285 1.0430102 -14.72783
-13.338965 1.6638454 -2.0751634
-13.522982 1.583134 -0.4851503
-13.373125 1.5539984 0.05721718
-13.271676 2.5854897 -1.9651089
-13.420377 2.4805791 0.06506896
-13.034279 3.3149483 -1.8214779
-13.417053 3.4514341 -1.2176566
-13.427659 3.4546058 -0.6027682
-13.259059 3.1747077 -0.011684746
-13.074173 3.757664 -1.1854007
-13.109471 3.7784777 -0.6700081
-12.978851 3.721889 -0.20076887
-12.0924225 -10.604516 -11.42996
-12.39242 -9.993014 -12.144534
-12.448921 -10.373424 -11.582576
-12.334414 -10.463028 -10.580792
-12.17626 -9.093412 -12.765548
-12.527329 -9.507389 -12.390142
-12.433452 -9.043281 -9.441633
-12.442495 -8.331906 -9.267948
-12.570837 -7.6194777 -12.99182
-12.552942 -6.7382236 -9.336337
-11.887043 -5.7288737 -9.522729
-12.276378 -6.166007 -9.331598
-12.320798 -5.3509192 -5.2769346
-12.442202 -5.365953 -4.6829233
-12.6453705 -4.8978257 -3.4608147
-12.483359 -5.1914167 -12.181718
-12.250125 -4.9226236 -11.685211
-11.65063 -3.3020115 -15.974269
-11.644746 -3.3973377 -15.788562
-11.737487 -3.6183903 -14.670616
-12.385881 -3.3887527 -6.7305813
-12.638347 -3.4605012 -1.7876966
-11.627969 -2.2086513 -16.807846
-11.848312 -2.4011905 -16.266712
-12.124135 -2.4942431 -15.324243
-12.263445 -2.6768034 -6.8099766
-12.322172 -2.9025142 -1.7899399
-12.191592 -1.22829 -16.188883
-12.467959 -1.4392012 -15.46775
-12.358134 -1.1279323 -13.730609
-11.825697 -1.9319115 -6.566698
-12.165569 -1.079928 -0.32313752
-11.6901865 -1.282183 0.027376339
-12.451266 -0.66158986 -16.155294
-12.498737 -0.7056519 -5.7909856
-12.371908 -0.3174085 0.28015405
-12.264787 0.45143554 -16.147436
-12.5072975 0.47562742 -13.9297085
-12.037607 0.3019331 -13.3131695
-12.305813 -0.21370119 -5.8899217
-12.703726 0.011712849 -5.109118
-12.35372 0.38889584 -4.8274827
-12.631011 0.3551535 0.47500485
-12.298759 0.7368899 0.8822911
-12.2187605 1.2328649 -15.924257
-12.368189 1.4195262 -15.511532
-12.436496 1.4241531 -14.774882
-12.078025 1.2204281 -13.95056
-12.005639 0.77881676 -4.3695655
-12.562236 1.7329001 -2.585699
-12.211503 1.2023124 1.0160937
-11.76945 1.9910443 -15.930746
-11.865372 2.273645 -15.448702
-11.97665 2.1133285 -14.709618
-12.088644 2.5363395 0.8888153
-12.478679 3.335939 -1.9548948
-12.431586 3.333968 0.46188465
-12.428383 3.9342313 -1.2102295
-12.429229 4.032554 -0.52144444
-12.411715 3.8248277 0.022310615
-10.770335 -13.703856 -5.8515987
-10.823683 -13.10756 -8.116959
-10.890189 -13.323762 -7.3438544
-11.081947 -13.168892 -6.6054316
-10.903124 -13.324967 -5.7736883
-10.924142 -12.602664 -8.278558
-11.175583 -12.613708 -7.264729
-11.231878 -12.485753 -6.476182
-10.73091 -12.389078 -5.088979
-11.726615 -10.806357 -11.264885
-11.168918 -11.553382 -7.17885
-11.179112 -11.780425 -6.64436
-11.08171 -11.4179535 -5.8275256
-10.909083 -11.492069 -4.962705
-11.534447 -10.315692 -12.146016
-10.915093 -10.677365 -7.0588846
-10.948333 -10.509988 -6.658875
-11.007844 -10.625839 -5.3029604
-10.873491 -10.432519 -4.634797
-10.636416 -10.476003 -4.118359
-11.741203 -9.06818 -13.063779
-10.981359 -10.011851 -4.881343
-10.699638 -9.938816 -4.2184334
-11.046772 -8.632639 -13.380039
-10.757288 -8.184896 -6.24758
-10.857196 -8.222852 -5.4107423
-10.679361 -8.409904 -4.866432
-10.75536 -7.272748 -6.604017
-10.683579 -7.690846 -4.5388823
-10.7296505 -5.750792 -15.141432
-11.008734 -6.5066576 -7.8315268
-10.75085 -6.4751687 -6.5233026
-10.694587 -6.7442303 -5.2867856
-10.893727 -5.717823 -15.02535
-11.30403 -5.478595 -14.543288
-11.434816 -5.357279 -5.1941395
-11.151989 -5.0933394 -5.092539
-11.459323 -4.133232 -14.50651
-11.2312565 -4.4474115 -11.5983515
-10.942484 -4.5469804 -10.287207
-11.220465 -4.7146277 -6.2898464
-10.786708 -3.0225084 -17.783321
-11.096876 -3.130993 -17.287151
-11.444384 -3.1650789 -16.600725
-11.013347 -3.4034925 -12.975699
-10.904912 -4.3149834 -11.106002
-10.656735 -3.5168433 -11.007587
-11.341347 -3.7414124 -6.493579
-11.305401 -3.176984 -1.6181347
-10.874835 -2.638323 -17.805962
-11.250678 -2.608941 -17.33493
-11.001604 -2.4431486 -12.826209
-11.058703 -2.3647704 -11.157459
-11.093771 -2.4150736 -10.132093
-11.12349 -2.2738667 -9.802914
-11.776968 -2.8080354 -6.96714
-10.956474 -2.302665 -0.5581399
-10.863192 -1.8347822 -17.644234
-11.035136 -1.8538269 -17.527063
-11.414659 -1.0737292 -12.595299
-11.207646 -1.5647937 -10.832413
-11.295404 -1.3578054 -9.569902
-10.966931 -1.718349 -8.407504
-11.435007 -1.6972471 -7.0309353
-11.208141 -1.0357931 0.89993405
-11.146674 -0.9313524 -16.98251
-11.279701 -0.38486785 -9.301213
-11.334346 -0.6938488 -8.787357
-11.036215 -0.6468489 1.1881891
-10.975533 0.16623333 -16.615349
-11.699416 0.2511399 -16.379257
-11.616458 0.18179663 -13.174225
-11.029627 0.38156006 -9.140053
-11.224178 0.12195541 -8.391756
-11.049738 0.81993985 1.5635487
-11.252301 1.6152701 -16.334244
-10.854952 0.7135688 -9.079391
-10.841829 0.6690215 -8.663658
-11.121955 0.95220596 -4.93089
-11.396007 0.9385993 -4.4882884
-11.483129 1.6934185 1.3430318
-11.3213005 2.3231678 -15.963109
-11.591107 2.5030708 -15.527822
-11.539689 2.4401827 -14.57426
-11.25128 2.2227695 -14.064762
-10.863476 1.7930913 -3.082373
-11.330696 2.105127 1.2484661
-11.225425 2.7195158 -15.383837
-11.262708 2.7249854 -14.929831
-11.631721 3.4879773 0.45081377
-11.245139 3.1524527 0.651448
-11.764616 4.069835 -0.9929901
-11.614629 4.094671 -0.47594976
-11.672934 3.9342642 -0.0103455335
-10.288507 -13.742045 -7.920987
-10.145399 -13.942878 -7.6454234
-10.320644 -14.080683 -6.551277
-10.605395 -13.761496 -5.7810144
-10.305971 -13.795465 -5.2942486
-10.063725 -13.024257 -8.985069
-10.383539 -13.28284 -8.524205
-10.590736 -13.511524 -5.428213
-10.596454 -13.327394 -5.182754
-10.1654625 -12.655245 -9.168606
-10.524332 -12.275955 -4.83316
-10.061292 -11.958315 -4.2682686
-10.841116 -10.680632 -11.623379
-10.52299 -10.689127 -10.602215
-10.49584 -11.673745 -4.5474873
-10.09003 -11.368967 -3.8844662
-10.742905 -10.266706 -12.208841
-10.322564 -10.59021 -3.9102767
-10.57834 -9.4177885 -12.857185
-10.097815 -9.434206 -3.3484697
-9.802814 -9.675186 -2.376992
-9.771266 -9.027175 -1.353288
-9.705739 -8.853779 -0.9520899
-10.232751 -8.510283 -3.6668308
-10.10289 -8.188244 -1.3539777
-9.860234 -8.520297 -0.49251273
-9.778398 -8.158323 0.14861378
-10.165777 -6.7375216 -14.399002
-10.174697 -7.477493 -3.8058946
-9.741417 -7.257586 -3.038415
-10.205304 -7.665886 -1.2419376
-10.093832 -7.5831075 -0.56285733
-9.862106 -7.544861 0.20354016
-10.37024 -5.9164777 -15.207071
-10.378269 -6.509536 -14.430659
-10.468222 -6.5541434 -4.6720862
-10.2943 -7.1466675 -4.228972
-9.5988035 -6.3918595 -1.5636902
-10.112871 -6.987813 -0.7238949
-9.664175 -6.9897285 0.6077059
[...]
POINT_DATA 4955
SCALARS features_00 float 1
LOOKUP_TABLE default
0.62892616 0.6177505 0.62461853 0.606189 0.62848 0.6304235 0.6113211 0.62324655 0.58136696 0.57350063 0.58396924 0.5949433 0.5866302 0.5647402 0.5704528 0.5921397 0.58948 0.5588098 0.5390201 0.5635172 0.5807705 0.5876447 0.53037465 0.46527368 0.5137918 0.5241395 0.52462995 0.4559289 0.47234005 0.4763599 0.4580925 0.30731472 0.48510173 0.47139126 0.5718332 0.5649853 0.5534551 0.7357514 0.72835064 0.7232133 0.69904226 0.7785219 0.7809837 0.643807 0.64935845 0.63977194 0.6142776 0.6211331 0.6360863 0.62727857 0.5737777 0.6074498 0.6100209 0.56306165 0.5922868 0.5696815 0.49943218 0.59149987 0.61842906 0.5794787 0.5062705 0.5675243 0.61575353 0.56614965 0.50570786 0.5826294 0.583032 0.58300453 0.5907181 0.5705827 0.5974605 0.5736186 0.51798344 0.56824654 0.51917374 0.52884185 0.44214344 0.5767386 0.6362591 0.47001025 0.2974933 0.62043446 0.68285906 0.6983243 0.62995267 0.3855134 0.4146049 0.42051128 0.30614847 0.34339625 0.7060406 0.7318977 0.71210706 0.6650139 0.38087627 0.40291655 0.38167298 0.40305287 0.4508607 0.7538581 0.73693895 0.62246 0.55695045 0.52473295 0.7249411 0.69385123 0.77332973 0.80592114 0.81739473 0.80235195 0.8196634 0.8329917 0.83222663 0.66013116 0.62243354 0.6523864 0.65115476 0.57590705 0.6068632 0.50035936 0.47116375 0.5203269 0.4297599 0.33923483 0.39003038 0.5767678 0.55133396 0.55299544 0.4824683 0.37027597 0.38426334 0.36222178 0.34001338 0.48246288 0.40513504 0.54505646 0.42575967 0.3288476 0.39566976 0.33820778 0.49362916 0.48716933 0.5046082 0.3141755 0.17583944 0.1543343 0.56481755 0.38851255 0.3024792 0.69379365 0.642838 0.54368526 0.30900717 0.3478927 0.27965114 0.40372133 0.44212675 0.77479535 0.7872158 0.7598972 0.6850647 0.1657009 0.44441307 0.52200836 0.8382151 0.8451855 0.8103727 0.6768991 0.7541141 0.7801144 0.81577075 0.81872106 0.8041717 0.46589863 0.5366077 0.599785 0.5944159 0.47138998 0.5510685 0.6240027 0.54426384 0.39760798 0.6611969 0.49699616 0.49413168 0.41064715 0.35732442 0.6101331 0.3581212 0.3382053 0.30947796 0.2679652 0.24657595 0.5393453 0.23201348 0.20665129 0.34343633 0.15281011 0.1748389 0.17277482 0.08365111 0.1340398 0.24539413 -0.13016962 -0.04141203 0.0682386 0.24611826 0.22282822 0.5038007 0.53455627 0.39294493 -0.0944904 -0.05466806 0.62143743 0.79710054 0.7078358 0.5229069 -0.1504354 -0.11713355 -0.32143933 0.5159934 0.11172968 0.79281807 0.70170087 -0.12569948 -0.24641234 -0.06374274 0.030048791 0.3347183 0.022800887 0.7308517 0.707097 0.18866238 -0.025600813 0.21475618 0.0712695 0.089938566 0.17229563 0.54956657 0.4095322 0.35262835 0.20032519 0.5410353 0.6091931 0.49276432 0.38499564 0.3424574 0.39871508 0.81214166 0.35733715 0.3240145 -0.007250361 0.020851333 0.54435027 0.86600125 0.86793244 0.85001767 0.8520199 -0.12604709 0.56421936 0.8838335 0.8746611 0.66757286 0.5955696 0.74299437 0.7095772 0.70449674 0.47255754 0.45919782 0.49583197 0.4413213 0.33632833 0.4424221 0.4744652 0.3906599 0.36441058 0.4520256 0.36720455 0.29944178 0.6016611 0.569589 0.33407342 0.2557074 0.5586951 0.23624918 0.429005 0.15977795 0.20667318 0.34413427 0.40741885 0.12831858 0.39621785 0.47673914 0.54324174 0.16799805 0.09598741 0.099323526 0.43124187 0.51292455 0.56843597 0.23084234 0.18151689 0.05870312 0.10299502 0.36195755 0.50094783 0.6169629 0.27392095 0.67383754 -0.23077258 0.81420624 0.7791452 -0.31775334 -0.22161588 0.054991953 0.021368697 0.012974821 0.8133092 0.026322708 0.10735065 0.14584242 0.13662222 0.75492775 0.71236 0.1667184 0.1481397 0.6291124 0.16221994 0.65023696 0.35227892 0.37070444 0.124764934 0.5353198 0.69315076 0.7926853 0.8275669 0.8105371 0.33626533 0.31792971 0.16773735 0.07240055 0.70781857 0.82496953 0.8666303 0.87852633 0.845068 0.8374337 0.21310249 -0.17539452 0.49502385 0.7453789 0.8751949 0.9113082 0.914706 0.8759916 0.8754706 0.8603452 0.5780754 0.27249017 0.4728645 0.5639316 0.5679292 0.75391793 0.84862506 0.91684693 0.9256317 0.6247929 0.6158987 0.59422135 0.5561522 0.60242134 0.6669779 0.52761227 0.61726344 0.57557017 0.35038412 0.3353514 0.36202645 0.35391286 0.41177684 0.41088519 0.16245584 0.17273778 0.49211308 0.5277002 0.505094 0.1521706 0.23632005 0.25301698 0.3773743 0.5010983 0.56291103 0.07342412 0.57218254 0.6284008 0.21279258 0.6090523 0.6610261 0.35928842 0.6071867 0.6659449 0.20859842 0.444965 0.70518124 0.80993617 0.7750615 0.11561179 0.79443765 0.11887778 0.10761205 0.76000464 0.6977117 0.06950397 0.11107401 0.6878762 0.5872882 0.28147915 0.4405064 0.48242852 0.6850487 0.73149335 0.2963532 0.41431952 0.48662946 0.608141 0.7389252 0.8102126 0.6940993 0.7018446 0.2706566 0.30893615 0.26794213 0.22704725 0.1010166 0.5392764 0.8680845 0.85476875 0.80489016 0.7873332 0.76428974 0.7817949 0.24375843 0.117398955 0.3918169 0.19749242 0.5832673 0.9146593 0.8969221 0.8353215 0.8233775 0.53661823 0.4699821 0.33589303 0.1371561 0.30790967 0.28145286 0.59551984 0.65376705 0.73439777 0.8145312 0.89804614 0.9227283 0.653867 0.6809726 0.6101289 0.52376765 0.72187734 0.786521 0.728585 0.7280171 0.696309 0.6135669 0.66359055 0.6879264 0.5760829 0.65528405 0.69224334 0.63438064 0.22178362 0.47949553 0.5372267 0.47987312 0.12439108 0.21797827 0.42378247 0.36766285 0.26547202 0.19581851 -0.031656116 -0.058143035 0.23121972 0.08364903 0.17810507 0.2529862 0.36589143 0.48048633 0.55523527 0.6267804 0.6592749 0.4050973 0.34633029 0.2438417 0.7083902 0.48389 0.6629223 0.6901418 0.5006354 0.57874644 0.0151402205 0.059252374 0.7009664 0.087767266 0.100367896 0.76515895 0.68002 0.09206 0.7138946 0.61314905 0.39115995 0.17445216 0.2636515 0.37026182 0.4788581 0.3464588 0.13816245 0.45809758 0.5884626 0.70318174 0.43429384 0.4245993 0.47140288 0.20701486 0.7858755 0.62997115 0.59493077 0.53585297 0.26916295 -0.051272333 0.31089297 0.8224901 0.84266394 0.71529126 0.69821966 0.20551498 0.15163943 0.890562 0.8796939 0.0791477 0.4287802 0.6254858 0.63827777 0.8766142 0.90640557 0.65148973 0.32177418 0.6872877 0.7216986 0.7687718 0.8573822 0.7287513 0.7091677 0.6628729 0.52074623 0.58049506 0.6262997 0.6930029 0.65853184 0.5603619 0.62965876 0.54548264 0.31126255 0.49382895 0.12042125 0.27186593 0.041171458 0.07467052 -0.03185198 -0.07177109 0.31315076 -0.021881878 0.095803306 0.006063938 0.39224392 0.4357418 0.35994667 0.3010217 0.57846737 0.46676016 0.41809896 0.687726 0.53955835 0.50748086 0.5722221 0.5458944 0.48817825 0.053597517 0.32107612 0.054545023 0.25201523 0.18826804 0.07512361 0.13433066 0.23215619 0.12063289 0.29130313 0.29823557 0.049521517 0.4978271 0.015438763 0.72013247 0.12770766 -0.31241053 0.8037779 0.1217816 0.14742154 -0.09295468 0.7978965 0.37382495 0.0066977255 0.53546214 0.6631011 0.740149 0.8574029 0.5714388 0.328229 0.6802143 0.68363607 0.6969433 0.67003703 0.6614571 0.63828075 0.56170416 0.49903744 0.38033146 0.6123495 0.60591245 0.45407128 0.5364475 0.6105661 0.47771347 0.53109133 0.4579872 0.20862658 0.3757822 0.25470674 0.29801846 0.2867589 0.13690609 0.14364564 -0.063412786 0.35253268 0.22177805 0.39284784 0.08941782 0.35788453 0.40902585 0.47707492 0.500223 0.45128697 0.5300066 0.2533424 0.53524035 0.5226593 0.4507408 -0.026305005 0.29345566 0.12053752 0.036163513 -0.04847417 0.023467416 0.07257988 0.10441679 0.11888228 0.16134901 0.3440689 -0.08843362 0.30628526 0.6189032 -0.03877016 0.515677 0.6837746 -0.015087332 -0.17781514 -0.17893456 0.521667 0.1726692 0.08385246 0.52868146 0.56948495 0.6370654 0.628605 0.60028505 0.53409535 0.52890545 0.427077 0.5888989 0.4181664 0.38009912 0.40011087 0.36436373 0.45393786 0.3902123 0.25000024 0.47845256 0.5174135 0.38146335 0.3363424 0.38890544 0.26336536 0.28302017 0.26454952 0.3366083 0.28155494 0.23507485 0.17812492 0.11502605 0.35766247 0.3341092 -0.2769504 0.32968026 -0.19555332 0.4117512 0.24562925 -0.13989475 0.2060908 0.1755051 0.37798816 0.08807514 0.33131775 0.5037461 0.51893395 -0.25625783 0.12072157 0.25525367 0.2828864 0.33518168 0.38664037 0.31920883 0.22855319 0.269683 0.268002 -0.120455086 -0.22524376 -0.092290536 -0.05357194 -0.03399119 0.04887282 0.069107816 0.20750284 0.30564785 0.1625832 0.087049276 0.17872478 0.28364778 0.15550077 -0.11526748 -0.20468274 0.32287633 0.27670872 0.29077333 -0.0043652207 -0.27776873 0.38769728 0.29691064 0.32592225 0.47381642 0.47956753 0.073568285 0.5373367 0.5017098 0.5589546 0.5330064 0.41928345 0.5740396 0.5406283 0.50836337 0.5728984 0.5983734 0.5731985 0.38092786 0.30149582 0.33401322 0.5188015 0.56327164 0.5571316 0.40254554 0.33068782 0.5458888 0.56213087 0.4490161 0.5403695 0.39350277 0.3838495 0.1819616 0.30691603 0.28910837 -0.26439092 -0.25580478 0.43035114 0.4726269 0.5198953 0.5367669 0.54800797 0.25738043 0.10598297 0.47846717 0.51751196 0.5318079 0.011331134 0.43610823 0.45570546 0.024510724 0.23692554 0.3935002 0.19519229 0.3262522 0.4007276 0.2638893 0.27617347 0.3871922 0.41777152 -0.06355956 0.36775306 0.37484628 -0.15014642 -0.11487183 0.29209226 -0.19531178 0.113800585 0.01614207 0.0581076 0.057357766 0.117226206 0.6241259 0.6497357 0.32971382 0.32634634 0.17116058 0.64156735 0.68830514 0.39819607 0.029539958 0.67309725 0.7008868 0.39524752 0.3510297 0.37504852 0.28270403 0.23690765 0.18628296 0.17891087 0.2522269 0.2808082 -0.020359635 0.33114192 0.33575356 0.440468 0.41324747 0.41318536 -0.36005774 -0.2511273 0.3628351 0.2977702 0.53700334 -0.081017025 0.2879609 0.3954749 0.34128177 0.5437836 0.43696997 0.44054055 0.5244129 0.5017251 0.38013214 0.4329573 0.49390602 0.5625522 0.5576074 0.5604371 0.4223792 0.2912251 0.33554363 0.5637752 0.4618017 0.42435598 0.5503992 0.36277777 0.32229593 0.23321931 0.09973051 0.5224972 0.54210716 0.55300546 0.17969549 0.14426969 0.37617666 0.5437432 0.55692726 0.55057865 0.535255 0.5109377 0.7674707 0.095486835 0.47953576 0.7678591 0.67502487 0.48506814 0.3968898 0.39820758 0.059114773 0.42303807 0.4299866 -0.18644491 0.4082781 0.34247515 0.107897624 0.4240931 0.10796712 0.39174354 0.49095696 0.5502411 0.55007565 0.6306125 0.6597806 0.4176849 0.6797974 0.6911989 0.41879272 0.4335065 -0.110699296 0.14698449 0.70460045 0.70351577 0.43519127 0.093891114 0.64194393 0.6870078 0.40330768 0.36559552 0.29032794 0.25102338 0.2752104 0.38460556 0.405689 0.318649 -0.110356316 -0.37793478 -0.42412713 0.23045464 0.21154897 0.50250536 0.5500528 0.56138 0.46377468 0.06517215 0.0990515 0.29104796 0.3088374 0.23477836 0.34076154 0.3363365 0.27546132 0.25197488 0.47392893 0.529719 0.57129526 0.580292 0.52279454 0.40571928 0.4731092 0.49666983 0.5170817 0.36782256 0.2751457 0.0732993 0.37339517 0.3977487 0.49376056 0.5230037 0.4963314 0.29819486 0.058112763 0.24214816 0.51403266 0.53893405 0.53731596 -0.10871604 -0.07964836 0.52910334 0.5225685 0.49928325 0.81019247 0.76876754 0.027423412 0.4789178 0.8006582 0.7318567 0.35925505 0.0004339926 0.3242026 0.77774334 0.26454362 0.7243544 0.3210619 0.37934253 0.6247492 0.2405935 0.40804482 0.42031693 0.31054762 0.12364734 0.42641956 0.38382912 0.31078923 0.3522823 0.41579115 0.34789178 0.46354663 0.52126384 0.4196161 0.5871935 0.639757 0.43375605 0.66919494 0.44103688 0.43659544 0.6905073 0.4449982 -0.28725183 0.0017651618 0.2725563 0.52088666 0.603768 0.66556656 0.42765826 0.39646134 0.2959173 -0.521059 0.1415574 0.3850646 0.4362828 0.30212885 -0.39378706 -0.31232604 0.21344006 0.1956294 0.1634002 0.5006702 0.5465193 0.53292394 0.47886014 0.32227018 0.2612052 0.1869319 0.26069024 0.29117113 0.11207117 0.14512023 0.17687178 0.23360416 0.2658657 0.5495324 0.55363584 0.31365445 0.31919742 0.39110833 0.44144446 0.42412508 0.47698176 0.48319075 0.42493337 0.39230645 0.369247 0.26273128 0.14238063 0.11676027 0.23292789 0.26976448 0.24404205 0.37619495 0.41151452 0.4707107 0.53660965 0.5820128 0.5633292 0.44629627 0.4139061 0.36252338 0.26434934 0.18228284 0.38290322 0.37481493 0.4157977 0.4785757 0.537198 0.5876732 0.5946898 0.4963912 0.47486222 0.44925785 0.4000295 0.52091694 0.5373574 0.54055274 0.4374114 0.085606635 0.1824985 0.31467056 0.35751915 0.32770953 0.10547877 -0.06361826 -0.2524775 0.2404586 0.40345487 0.4772709 0.45489046 -0.15969461 0.45918223 0.43682122 0.84366137 0.8237464 0.71444976 0.55036193 0.4652409 -0.078506246 -0.3209747 0.40658242 0.36444843 0.8290149 0.218038 0.7789174 0.7881043 0.24645044 0.7450144 0.6971511 0.37582117 0.6311343 0.40543097 0.44273996 0.40719998 0.3866494 0.32006228 0.3362042 -0.038465306 -0.0297807 0.20898147 0.37326956 0.35949898 0.4445933 0.36887074 0.5229724 0.5395228 0.39467496 0.6240351 0.38448912 0.3972662 0.6122973 0.51579654 0.53401273 0.3245784 0.26352623 -0.13048896 -0.07338505 -0.057863638 0.027796164 0.36838406 0.13196576 0.124656305 0.039354876 0.19734308 0.35000834 0.0914079 0.030377015 0.6094681 0.6855203 0.43314883 0.4909254 0.5241015 0.50963426 0.20947586 0.19751605 0.1097316 0.20746496 0.33135563 0.31825277 0.3614857 0.5638349 0.74161744 0.7524096 0.5382868 0.43249106 -0.06048138 -0.059878748 0.65978175 0.74468386 0.7751095 0.46379352 0.35046378 0.1544837 0.16197808 0.283384 0.63807774 0.7523114 0.7803615 0.52938145 0.48137543 0.4183511 0.24038517 0.16670175 0.18231009 0.34555393 0.20478615 0.30079082 0.7136906 0.56016016 0.5372499 0.44443262 0.3576814 0.47530964 0.49789342 0.48533854 0.46632686 0.27676374 0.3415763 0.40780014 0.4649792 0.45345974 0.4372387 0.50872546 0.5159643 0.5077732 0.43929335 0.23062225 0.30840024 0.36147726 0.4109918 0.4259315 0.41484976 0.4676511 0.47839713 0.3388414 0.2165969 0.3696419 0.35666344 0.20932896 0.19557959 0.1899319 0.038658 0.17662172 0.12350849 0.028419817 -0.07308273 0.007742749 0.21764466 0.17655024 0.37829155 0.31587738 0.8562328 0.84809744 0.7512368 0.5471667 0.48530167 0.3940612 0.2953877 0.26493788 0.836988 0.1377055 0.75995064 0.76741964 0.7404985 0.7014959 0.20279612 0.3285316 0.64992714 0.55081 0.3746626 0.48517653 0.4612983 0.3312845 0.4198726 0.19867837 0.25923836 0.21744081 0.37147644 0.28594363 0.36119515 0.31575954 0.3788962 0.35054085 0.3056455 0.29222855 0.14834905 0.41441932 0.3164786 0.30663863 0.319569 0.00019998848 0.3807103 0.58176947 0.66557306 0.7073988 0.30620855 0.23090844 0.14059317 0.13834406 -0.008421585 0.35356045 0.6017557 0.6845751 0.7255406 0.41220117 0.05101186 0.74360406 0.75650764 0.43682253 0.7834649 0.7765138 0.7554929 0.7802353 0.606151 0.58829415 0.48245767 0.69504976 0.74007666 0.60651785 0.57923865 0.5105031 0.28161296 -0.0056827217 0.21728255 0.38411897 0.35309958 0.4689191 0.5007914 0.4775917 0.41093558 0.3054961 0.19685051 0.27589393 0.3922768 0.37859288 0.36222988 0.4455827 0.31481957 0.35363936 0.37336433 0.64040464 0.6403433 0.62350965 0.5981387 0.62060905 0.60477006 0.55838895 0.4946349 0.5411457 0.5007502 0.5018826 0.59681153 0.46141094 0.14174196 0.30767667 0.21397488 -0.053168222 0.25715104 0.17866632 0.16860385 0.13973086 0.5778279 0.52075934 0.7993864 0.763183 0.7116446 0.5218132 0.42014313 0.05963801 0.10748051 0.74888504 0.7169049 0.6965579 0.6670422 0.55256 0.20395893 0.46467185 0.37474144 0.18494251 0.25304806 0.07888834 0.19739135 -0.05175767 -0.080638684 0.12865058 0.20311804 0.27365142 0.19462015 0.03929405 0.28798634 0.10938685 0.26912576 -0.11354564 0.57487464 0.6478368 0.36751947 -0.25376424 0.07580794 0.45362425 0.52592224 0.7090924 0.36638457 0.3428513 0.3084495 0.19037105 0.15127826 0.010302544 -0.17597383 -0.2851333 0.0028694943 0.69622034 0.31087783 0.2741695 0.21220276 0.71432674 0.719094 0.39950025 0.7301564 0.7489773 0.47471386 0.7579988 0.7724143 0.5774896 0.44485486 0.6231584 0.71891785 0.6172056 0.6056108 0.5297948 0.41276813 0.25688502 0.60079074 0.39155504 0.2621534 0.39712054 0.37059474 0.29878008 0.2232891 0.15058246 0.30002603 0.32597202 0.3378694 0.34763372 0.31886518 0.76325 0.7441361 0.7408874 0.7283709 0.73127615 0.6779802 0.71189153 0.65494084 0.6079282 0.49032936 0.6485597 0.43818504 0.5102172 0.18848264 0.28278607 0.31364992 0.35674125 0.30084524 0.23675872 0.14411606 0.23735303 0.03272885 0.096243404 0.271828 0.14554402 0.18533608 0.16523194 0.613559 0.5783043 0.48630434 0.14883769 0.64902633 0.5800597 0.5075505 0.41458225 0.2547556 0.090798855 0.12892766 0.549561 0.44168803 0.0751798 0.4456049 0.33956254 0.38972723 0.30705446 0.21560305 -0.25965384 -0.08443732 -0.3444432 0.22666334 0.22428441 -0.281165 -0.262152 0.10254283 -0.12780675 0.015666679 0.077585734 0.13166681 0.13648856 0.10128513 0.14009663 0.09935345 -0.0061852634 0.31027693 0.37325287 0.20986263 -0.12947232 0.2981336 0.37271065 0.3016214 -0.3783275 0.34982932 -0.15698028 0.67685616 0.34619337 0.3293551 0.29275408 0.1483035 0.63276064 0.19304487 -0.026361685 0.6413781 0.6556097 0.5862867 0.6732672 0.54595816 0.4585439 0.21163565 0.43856958 0.5829164 0.5192637 0.5011234 0.28440857 0.07754252 0.21282381 0.30188143 0.2941556 0.22413619 0.15677263 0.19994123 0.29097277 0.26950806 0.27094737 0.3054161 0.30430084 0.83193815 0.81111497 0.81562465 0.81943285 0.83555245 0.77674377 0.76801825 0.7289566 0.7819473 0.6157751 0.60041004 0.7153293 0.48598003 0.4760649 0.2622188 0.28003648 0.26813588 0.0410415 0.14997983 0.2123874 0.25487158 0.2992108 0.35137367 0.23866488 0.23154388 0.3603146 0.39387143 0.18801206 0.080449 0.26884216 0.25658977 0.02062174 -0.043699488 0.16905706 -0.085124 -0.20289046 0.12607911 0.27822512 0.20306222 -0.005861163 0.08479379 0.3358819 0.27075535 0.1420709 0.018811136 -0.37971538 0.21070072 0.14691098 -0.38943824 0.19482796 0.1208626 0.0006349515 -0.22419374 0.04986947 -0.07367559 0.11660106 0.15053833 0.091705196 0.1666019 0.092362344 -0.026032384 0.13043737 0.2658121 0.30069587 0.13740107 0.33017206 0.35546327 0.17142433 0.18617438 0.38479042 0.39064854 0.2489324 0.34649187 0.32799932 -0.24718629 0.3312323 0.30784875 -0.11523779 -0.1943463 -0.30028403 0.39743304 0.15602197 0.07886817 0.06880766 -0.0193782 0.3287415 0.55633545 0.10158639 0.42817962 0.31892943 0.39001846 0.22200198 0.4372622 0.33952838 0.28558555 0.13111855 0.09800405 -0.08290388 0.0019842386 -0.071856245 0.16742472 0.22841461 0.1383419 0.0952556 -0.11617362 -0.08218116 0.20215671 0.12423404 0.14509806 0.24355465 0.2422465 0.19435352 0.27069992 0.22045484 0.7977906 0.8081447 0.8147818 0.8437208 0.81514955 0.77101237 0.7522639 0.7754924 0.77673876 0.7379067 0.71675324 0.68784827 0.69794214 0.48453796 0.22099203 0.22461848 0.1415575 0.08911608 0.1056487 0.038255535 0.095072344 0.19619058 0.31233248 0.39196217 0.44051516 0.4626708 0.14625657 0.11685139 0.109646015 0.447309 0.4262095 0.12564974 0.38667002 0.3101491 0.08339651 0.25338006 -0.011940403 0.13638772 -0.2173875 0.06995122 -0.14200273 -0.14572147 -0.120865464 -0.00505396 -0.19017518 -0.023576852 0.12609285 -0.10464516 -0.23773962 0.09425604 0.28551286 -0.01216699 -0.14112912 0.108258456 -0.060342938 0.12191544 0.03874324 -0.086980015 0.19513378 -0.0739549 0.20761521 0.18369924 0.12964742 0.29136658 0.12964964 0.37907308 0.1538809 0.39893362 0.23642464 0.21475938 0.2892648 0.045798093 0.25028276 0.11697704 0.15281865 -0.03087321 0.18742459 0.15433957 0.084159985 -0.0641157 -0.037851095 0.24126181 0.24028333 -0.29958174 -0.2617064 0.038731843 0.41247523 0.33219025 0.15057138 -0.1601331 0.42286438 0.44623867 0.41981763 -0.32515937 -0.024608646 0.4919808 0.4844667 0.44528884 -0.057733078 -0.1214444 -0.1448532 0.072007105 0.045384783 -0.0959659 -0.004988713 0.009716593 0.113695726 0.07111517 0.11921846 0.11554121 0.1604264 0.2832784 0.786812 0.7950628 0.77368945 0.7536013 0.75082976 0.75919205 0.7586982 0.7513482 0.7181827 0.7442932 0.6784082 0.6507417 0.67210495 0.6790423 0.5680574 0.5194953 0.46663666 0.28493124 0.1090999 0.15249407 0.34346944 0.26837575 0.43450457 0.47288233 0.08425626 0.38011542 0.51807475 0.4793349 0.48676032 0.07053692 0.0672328 -0.14060608 0.051279504 0.45013973 0.25827736 0.044053383 0.14546145 0.10072881 0.08600503 0.07220188 0.26111782 0.052529965 -0.07728955 0.13651322 0.25397366 0.34236705 0.16857702 0.1839759 0.23058143 0.38026923 0.36859134 0.123833835 0.1582473 0.2783026 0.30561984 0.23292527 -0.038387462 -0.020541443 0.03425245 0.003772758 -0.1435037 -0.1755658 -0.05740515 -0.021532781 -0.031422168 0.11016701 0.06538968 0.105743445 0.206535 -0.04449004 0.2694055 0.31989