# vtk DataFile Version 2.0
Really cool data
ASCII
DATASET POLYDATA
POINTS 3720 float
13.421953 0.6256787 23.710743
13.417022 0.60706264 24.170965
13.403418 1.146195 23.793911
13.41858 1.4007441 24.31202
13.464343 2.5360036 24.498531
13.408093 6.180594 16.06236
13.394198 5.9938455 16.803623
13.347619 6.0889544 17.182806
13.438298 6.476057 15.972785
13.197445 6.5910397 16.657358
13.179324 6.5129795 17.321081
13.317011 6.7446556 17.960978
13.362271 7.252832 16.193918
13.173411 7.360516 16.77096
13.178889 7.369577 17.491495
13.265529 7.336684 17.919508
14.196914 -0.79144984 23.79142
14.191673 -0.73990035 24.398119
13.951425 -0.028351426 23.009304
13.80671 -0.27842158 23.654915
13.799631 -0.26979104 24.398209
14.064359 -0.21326855 25.1994
13.833559 0.5228025 22.915997
13.545914 0.4190198 23.416067
13.5349245 0.3427441 24.454351
13.761719 0.5487378 25.296865
14.13683 0.7135729 26.222141
13.807934 1.3328042 23.050026
13.683098 1.7064935 23.542923
13.635297 1.1644413 25.231516
13.97002 1.3991643 26.091505
14.034915 1.9645323 23.286173
13.719797 2.5107694 23.72045
13.572822 2.589694 24.43574
13.712542 2.4811428 25.434475
14.065861 2.5922756 26.068892
14.095642 3.9428709 22.555443
13.872972 3.3182247 23.445633
13.6622 3.0698543 24.574982
13.830145 3.3661132 25.334064
14.015857 5.338621 16.505962
14.368316 5.0045214 17.879591
14.197841 4.807886 21.979023
14.065804 4.648293 22.430101
13.879022 4.6987557 23.398855
13.899979 5.8706393 15.686728
13.633282 5.8246565 16.446459
13.705883 5.7279887 17.384436
13.667272 6.0703464 17.970228
13.978268 5.559923 22.56399
13.688211 5.4743295 23.370415
13.662241 6.043939 24.372501
14.222368 5.6782765 25.252787
13.987508 6.7487626 15.282753
13.476414 6.5227757 15.907042
13.552139 6.593704 18.217625
14.080126 6.5716724 18.885727
13.818109 6.5126705 22.679102
13.588233 6.574892 23.605288
13.715914 6.50574 24.630302
13.871816 6.9283614 25.206287
14.029721 7.1092978 15.324715
13.703792 7.3567185 15.722445
13.611688 7.3736415 18.32773
14.443323 7.1634502 19.512077
14.320116 7.5078845 21.760206
14.0137005 7.566241 22.48589
13.664233 7.611257 23.601732
13.649211 7.4261913 24.391632
13.856101 7.4868097 25.335861
14.185465 7.6579256 26.141182
13.898858 7.9970737 15.925055
13.739559 8.176804 16.650377
13.71517 8.210442 17.274014
14.062094 8.073201 18.289612
14.231419 7.8331304 18.881855
14.228193 8.45631 21.895674
13.943396 8.13883 22.7775
14.05206 8.459901 23.333622
13.859715 8.225825 24.51109
14.042178 8.47937 25.357439
14.299164 8.300308 26.055506
14.354024 8.886015 22.174877
14.280457 9.000793 23.728533
14.2336 9.053802 24.420437
14.356643 8.999947 25.404724
14.718169 -0.8953128 23.247692
14.60146 -0.9656099 23.562445
14.702807 -1.1795726 24.361904
14.849507 -1.022635 25.191786
14.992136 -0.6669477 25.831213
14.6218195 -0.37959227 22.8569
14.484566 -0.51869476 25.49464
14.6605 -0.046183288 26.215998
14.6150255 0.33228418 22.552069
14.513151 0.5228938 26.549946
14.689345 0.809832 26.854092
14.97159 1.6772685 22.429443
14.387534 1.1346717 26.663536
14.730483 1.446742 26.912352
14.67629 3.0322711 22.545267
14.654009 2.8020205 26.596184
14.9685 2.2171118 26.866907
14.58167 3.6536047 22.005672
14.781628 3.7866933 26.355444
14.92712 3.2389574 26.70564
15.210774 4.938981 15.12956
14.348812 5.2240868 16.096645
14.440843 5.0910826 16.2769
14.4225645 4.9431987 17.788897
14.481209 5.0720778 18.126894
15.126445 4.9937344 19.118292
14.729402 4.7179656 21.195114
14.436372 4.169546 21.834444
14.500118 4.011869 26.115643
15.349429 5.8779483 12.109415
15.281904 5.7635365 12.532037
14.545314 6.0565915 15.109579
14.843986 5.4671636 15.3684
14.75885 5.7337837 19.238403
15.248939 5.7956576 26.133503
15.301507 6.2116218 12.044008
15.265625 6.4778957 12.525212
15.342089 6.5150886 13.847969
15.38092 6.460898 14.112774
14.472824 6.4598007 19.032413
14.96763 6.4158106 20.635775
14.519567 6.8624015 21.656584
14.560559 6.777143 26.216711
15.149447 7.0364428 26.8701
15.325061 7.0017023 12.750602
15.382044 6.8862624 13.495725
14.840391 7.387098 15.077026
14.484474 7.5674148 26.462173
14.743561 7.7119265 26.72826
14.603166 8.452992 15.917076
14.272893 8.526634 17.631168
15.009246 8.118078 20.36272
14.492145 8.720922 21.569902
14.654623 8.379542 26.411259
15.0086 8.123645 26.79872
14.7219 8.759899 16.424347
14.448348 8.710615 17.11812
15.157444 8.639716 19.634613
15.2722025 8.876481 20.666018
14.835791 9.229041 21.770134
14.520933 9.173762 22.640278
14.574839 9.318059 23.465248
14.6033 9.490957 24.543354
14.520504 9.141633 25.408314
14.839558 9.040631 26.025747
15.190346 9.686563 22.38687
15.002427 9.784509 24.578318
15.101114 9.778179 25.17542
16.453568 -3.0998366 12.662963
16.452787 -3.3681803 13.1340885
16.428349 -2.6773276 12.6556
16.470236 -2.2322469 12.967854
15.785871 -1.7125347 23.743593
15.706764 -1.6898799 24.480452
15.735153 -1.6146567 24.868906
15.125137 -0.7667344 22.958855
15.47543 -1.4303706 23.514256
15.279624 -1.5308716 24.548231
15.493723 -1.2916323 25.209227
15.64117 -1.0159626 25.675575
15.489743 -0.44853258 22.71813
15.552484 -0.31620273 26.359612
15.350858 0.12438895 26.757793
15.498286 0.49293447 22.655186
15.502937 0.59451205 26.99039
16.359335 2.1077785 13.024227
16.439585 1.5859675 13.826809
16.467438 1.6056286 16.831469
16.25453 1.7442111 17.564215
16.327538 1.5720083 18.364737
15.5326395 1.2945065 27.188389
16.276628 2.9748101 12.406395
16.265676 2.4116073 13.501317
16.374187 2.3914018 15.080314
16.389341 2.5875273 16.533594
16.160812 2.6651134 18.053806
16.328127 2.1726115 18.824564
15.78695 2.6302152 22.001316
15.479532 2.7172263 26.968271
16.249233 3.8202958 12.022831
15.916125 3.7644014 13.516578
15.949917 4.0592566 14.370453
15.819148 4.2516212 15.967685
15.409185 4.1206784 16.811733
15.423049 4.2391987 17.473934
15.6422825 4.1068053 18.461845
15.828404 4.22386 18.874866
15.500308 4.07429 20.98982
15.293402 3.735436 26.635809
15.887785 4.6989565 12.182333
15.825329 4.6002336 12.567309
15.544131 4.8668504 13.248874
15.704746 4.5463586 14.612538
15.592035 5.745967 11.900049
15.640124 6.3296466 11.779504
15.863727 7.298336 12.027716
15.702685 7.4414434 12.549524
15.582737 7.607791 27.223188
16.004395 7.9872 12.743348
15.610984 7.861969 14.680392
15.212615 8.537663 15.817039
15.884956 8.256016 27.253487
15.314561 8.873326 17.620895
15.598097 9.528888 21.444542
15.759812 9.219851 26.299871
16.129923 8.850189 27.09065
15.630358 9.963954 22.638454
15.498875 9.923567 25.249784
16.135345 9.862371 26.009611
17.367031 -4.8358665 11.81093
17.346981 -4.7801385 12.162787
17.276926 -4.1138544 11.12175
17.1629 -4.3310547 11.544499
16.92822 -4.26217 12.599305
16.851643 -4.070524 13.441912
17.044308 -3.9562416 13.962933
17.135363 -3.475882 11.150385
16.751585 -3.404623 11.767808
16.578289 -3.3558507 12.394188
16.624773 -3.5592158 13.479399
16.956802 -3.3800228 14.143652
17.122612 -2.7601058 11.235532
16.847515 -2.573452 11.555924
16.517271 -2.3792415 12.398927
16.551752 -2.508012 13.459176
16.874393 -2.6120102 14.132963
16.508627 -1.6665483 23.898108
16.483284 -1.6443291 24.552128
16.781214 -1.9589221 11.808255
16.685139 -1.7888002 12.452277
16.814665 -1.7775575 13.360708
17.17799 -1.8652909 14.495067
17.457886 -1.1995674 15.238093
16.451967 -1.527803 23.51843
16.32182 -1.3864968 25.19965
17.215118 -0.55947775 14.4623165
17.052788 0.014541656 15.652771
17.202877 -0.13480127 16.231646
16.949081 -0.35182887 22.658335
16.275543 -0.26152575 26.17452
17.329502 0.9499901 12.65288
17.092783 0.40685987 14.961014
16.836575 0.6267328 15.442719
16.793747 0.64237463 16.435946
16.480919 1.1139889 17.376343
16.678455 1.0795746 18.6872
16.460117 0.8596679 26.922424
16.96243 2.0763042 11.996191
16.70288 1.658502 12.721454
16.507618 1.6119864 13.440516
16.559593 1.3781781 14.45167
16.631866 1.4617277 15.746776
16.969643 2.3548284 11.668386
16.459858 2.5778902 12.434926
16.478416 2.362203 18.98187
16.892452 2.8557897 21.759224
16.128674 2.8695207 27.049807
16.997187 3.3784578 11.348333
16.642313 3.6423364 11.734231
16.62413 5.096999 11.320128
16.509817 4.385565 11.888674
16.482252 5.1049128 27.186144
17.439709 4.903799 28.493828
16.541872 5.7597327 11.242182
16.63209 6.519632 11.260349
16.230663 6.7435913 11.44968
16.556166 6.517432 28.072315
16.668938 6.9753933 11.359369
16.522211 7.5523105 11.852511
17.06438 7.526396 28.241898
16.358923 7.9514937 12.152274
16.506102 8.379565 12.841501
16.68449 8.610943 14.923777
16.93612 8.199202 27.878405
16.955378 9.071595 13.363432
17.13568 8.974326 16.135082
16.732584 9.102653 18.65775
16.83542 9.323342 19.513422
16.89346 9.188385 27.138742
16.839685 9.628088 20.783054
16.414473 9.850931 21.953135
16.19723 10.032204 22.413094
16.54761 10.455012 24.968147
16.301266 9.865446 26.174898
17.13709 9.873576 26.714962
16.84015 10.886072 22.923277
16.761566 10.97208 23.641579
16.648329 10.866765 24.404602
16.917099 10.900526 24.93158
18.210989 -5.5905185 11.929502
18.06532 -5.1068583 10.977721
17.87861 -5.1771126 11.439905
17.834618 -5.196565 12.499171
18.029757 -5.051587 13.438022
18.039114 -4.7995095 14.0054455
17.820316 -4.5086393 10.703859
17.295713 -4.4382844 13.768264
17.699574 -4.3842497 14.0762415
18.070646 -3.212008 10.334492
17.97679 -3.7980587 10.455715
18.013885 -3.4256275 15.058436
18.343319 -2.877412 16.118086
17.637835 -2.7906563 10.847567
17.683214 -2.2933972 15.210135
18.274466 -2.1397939 16.452751
18.132359 -2.0140367 23.658697
18.107533 -2.12956 24.313066
17.392483 -1.9727383 11.291996
17.957613 -1.3026974 11.613757
17.622997 -1.2446995 14.892637
17.858555 -1.1384726 16.607098
17.091745 -0.88581276 25.282875
17.737198 -1.149089 11.76481
17.760387 0.20161566 18.227665
17.795912 -0.31008032 22.266853
17.73888 0.81957227 19.06475
17.844078 0.4770551 21.95304
17.361443 0.64702266 26.484217
17.064724 0.6538438 26.75308
17.89082 2.1509395 11.413223
17.676342 1.7426805 11.521098
17.350132 1.1544639 26.97077
17.360132 2.7897 11.223897
17.540182 3.5289526 11.1203
18.160673 3.7668734 28.85394
18.17695 3.9789112 30.151724
18.311249 3.8273594 30.869593
17.56623 4.5637064 27.83
[...]
POINT_DATA 3720
SCALARS features_00 float 1
LOOKUP_TABLE default
0.6224157 0.61938465 0.5441943 0.5141801 0.421714 0.580686 0.5801803 0.58917546 0.59862816 0.64734554 0.63227195 0.6013051 0.6841405 0.7285657 0.7057719 0.6535826 0.74200886 0.7212541 0.7234317 0.7342353 0.71172434 0.6621845 0.6566071 0.6605612 0.6529989 0.6250907 0.6008647 0.50790554 0.45713663 0.5667898 0.5727967 0.39951408 0.3453732 0.4096387 0.5265509 0.51929915 0.18092215 0.22746855 0.37298277 0.44943637 0.4569966 0.3828544 0.19017854 0.18524827 0.1923364 0.5013761 0.5419246 0.52671504 0.5290215 0.23872769 0.27883524 0.39391035 0.32915077 0.51189816 0.59583485 0.5542885 0.46077543 0.3098899 0.3854012 0.43234903 0.4642567 0.52823925 0.6223032 0.59703815 0.32235098 0.29889503 0.35578635 0.42314178 0.46497294 0.49538696 0.4797765 0.66593844 0.7436161 0.73739576 0.58623767 0.469895 0.33980367 0.38089496 0.40490973 0.4831358 0.50960565 0.49476796 0.35334954 0.42060518 0.45820445 0.49055874 0.7228335 0.73016936 0.6938845 0.6276412 0.58767676 0.70860195 0.6299485 0.5981624 0.6521244 0.5963414 0.58064294 0.41961074 0.58010423 0.5531211 0.23981847 0.45219857 0.48806414 0.18241353 0.32703376 0.39232823 0.17492653 0.39800674 0.37902376 0.3743505 0.3679617 0.23624368 0.17431533 0.16869293 0.30641735 0.49055633 0.43716067 0.39246613 0.319627 0.3026082 0.2052839 0.51152825 0.4768853 0.33382353 0.30543616 0.4002806 -0.02389577 0.21464922 0.4139449 0.36216533 0.46593332 0.38647598 0.41566503 0.45398736 0.43793428 0.5849165 0.6398725 0.20974414 0.31524584 0.4680133 0.43107945 0.5781728 0.6341167 0.2135097 0.2637087 0.3105318 0.37070757 0.39623034 0.43717504 0.47988176 0.46375895 0.32068232 0.39950413 0.4140308 0.5920631 0.5754643 0.57733804 0.53542733 0.6094802 0.5831736 0.5660859 0.6744678 0.6654546 0.630944 0.578169 0.54346484 0.5795843 0.5366484 0.54800725 0.45564407 0.53423476 0.27165803 0.1909936 0.13385816 0.19590181 0.29878122 0.52388865 0.30855674 0.22736047 0.08660159 0.04554954 0.108411476 0.2291766 0.21289873 0.41593274 0.3414315 0.20525137 0.06458634 0.08043156 0.19119942 0.20921391 0.12920031 0.10193852 0.12622367 0.26406997 0.3966188 0.35457665 0.29122818 0.0746365 0.50222284 0.53785205 0.5347282 0.4947613 0.35735407 0.45728147 0.30119053 0.45925385 0.33590257 0.3750962 0.2608295 0.3805192 0.31483155 0.28522676 0.3742214 0.31402546 0.5738586 0.5618547 0.6341615 0.6325819 0.60982305 0.55840826 0.4766158 0.6186019 0.62854934 0.61452854 0.55503076 0.45762897 0.57830626 0.58782494 0.58138204 0.49796796 0.41177496 0.47298154 0.45645365 0.57097197 0.5581943 0.43985927 0.22996664 0.04382693 0.52098364 0.47668552 0.012400962 0.031903 0.08161372 0.26882476 0.4684255 0.28007385 0.025252372 0.047521695 0.10878105 0.21634422 0.3869618 0.4299576 0.33007294 0.2969018 0.23123512 0.12283566 0.08236514 0.33215857 0.3099876 0.20311463 0.15139145 0.3549037 0.34962666 0.34764698 0.4540704 0.38011658 -0.09298588 0.14682513 0.5095003 0.52410936 0.5435066 0.2484121 0.5228241 0.51965845 0.20388907 0.5000305 0.41974217 0.34661105 0.22345167 0.38449562 0.1947902 -0.012142282 0.026150111 0.24011326 0.09909889 0.18463284 0.22431676 0.307312 0.29615176 0.23001409 0.2898193 0.33080113 0.33450252 0.32239896 0.45798054 0.5450474 0.5336969 0.46960017 0.40414903 0.34960422 0.59745616 0.46351117 0.37439197 0.51596916 0.57295454 0.25702396 0.1603487 0.53356665 0.16467024 0.10762665 0.2406836 0.25271046 0.5106538 0.40210572 0.06717941 0.0944404 0.33741856 0.41579604 0.18252298 0.0044590086 0.23913814 -0.01550968 0.21832742 0.3020303 0.29707992 0.30550516 0.15304136 0.33144772 0.35503745 0.17632024 0.34890747 0.37289593 0.076493986 0.25519454 0.3963906 0.39875835 0.4483027 0.3947771 0.45572373 0.2501551 0.46001697 0.18345845 0.18589719 0.46644354 0.18160827 0.41693094 0.4174651 0.16838664 -0.09171407 -0.040390424 0.007371392 0.20147246 0.19195856 0.43862444 0.44413793 0.46306065 0.30334723 -0.02385163 0.020793814 0.11769684 0.2280375 0.21361491 0.3120457 0.39535162 0.38497412 0.32668656 0.26774496 0.43515742 0.42963096 0.4238509 0.36484972 0.31206197 0.51599073 0.48040903 0.43317997 0.34467465 0.25674048 0.1752944 0.49950367 0.16953172 0.4572959 0.17446613 0.209818 0.32296824 0.38532126 0.1334275 0.19430193 0.29346284 0.30544442 0.28922987 -0.007811852 0.092155665 0.22861362 0.0451271 0.061824672 0.01717703 -0.099128075 -0.1431317 0.13648216 -0.31992117 -0.17069656 -0.020518057 0.14347856 -0.06833115 0.26603287 0.0057452163 0.11679061 0.2463792 0.29850864 0.26613313 0.36237943 0.35578698 0.33085495 0.3867057 0.3612092 0.3771221 0.2922946 0.2811369 0.33027023 0.41242653 0.18980801 0.24199472 0.30191806 0.14272876 0.14139128 0.4044283 0.11110445 -0.049043454 0.19597252 0.43040717 0.445884 0.46227592 0.44664204 -0.026402 0.2650551 0.23148528 0.3905495 0.4302131 0.34188786 0.30015463 0.4988252 0.5084284 0.47500154 0.4216848 0.6163027 0.6677075 0.43073487 0.63161933 0.6649702 0.668761 0.37866068 0.61089337 0.6490841 0.6087968 0.20711452 0.21946499 0.41739684 0.12864307 0.30796686 0.12932914 0.13147867 0.077594586 0.27608764 0.30678093 0.32227066 0.33648443 0.31129178 0.11976691 0.30708256 0.21259227 0.10230314 0.097916596 0.21160516 0.624058 0.1289179 -0.01017838 0.016419344 0.53935695 0.57980824 0.5592532 -0.24983907 0.036658935 0.37810355 0.48803896 0.46278208 0.029998563 0.11558587 0.22125158 0.2818379 0.25423265 0.27995282 0.15926865 0.27785456 0.12697524 0.3402964 0.16010879 0.32595485 0.32728153 0.14408599 0.29271495 0.19834818 0.23134318 0.26092637 0.11758694 0.15026897 -0.096874386 -0.090779364 0.18161224 0.41497248 0.4229342 0.4067475 0.15951991 -0.060249742 -0.015257103 0.28772962 0.38132244 0.3347367 0.5156511 0.5488967 0.52411497 0.43498278 0.5230189 0.76216877 0.73602533 0.36194944 0.46804017 0.60512924 0.6641229 0.68946457 0.750436 0.78742796 0.79006016 0.7324153 0.26662672 0.6600827 0.67538583 0.74892867 0.7357982 0.61011255 0.008070261 0.14751819 0.57112753 0.58517814 0.6024282 0.56905043 0.4473945 0.34542364 0.040188957 0.3498909 0.27113718 0.4560308 0.2889924 -0.03366967 -0.029930145 0.06000565 -0.031596497 0.093839996 0.16487297 0.1843178 -0.023456093 0.028660074 0.124621704 0.17471962 0.25327623 0.26787847 0.12924597 0.19651288 0.5243081 0.6182029 0.15487772 0.16284625 -0.09749748 0.10055597 0.021133859 0.01965563 0.09209585 0.3643993 0.5738231 0.6409844 0.6297296 0.15254264 0.17617182 0.17639144 -0.28512213 -0.19365938 0.3096352 0.5903857 0.5616528 0.17905408 0.19226436 0.17245969 -0.21496972 0.44983402 0.4482673 0.17330675 0.10472838 0.38181552 0.38273352 -0.10865407 0.29164696 0.32058772 0.011292228 0.27768767 0.25512853 0.10778958 0.27884203 0.24907863 -0.016962737 0.2894708 0.29195493 0.03962189 0.2336736 0.2339609 0.17860138 0.20355088 0.24185476 0.2597385 0.12692173 0.13359824 0.19541861 0.06623467 0.2509727 0.1637353 0.27475896 -0.1304774 0.20519002 0.32012266 0.25391343 0.30316925 -0.10865401 -0.14042586 0.12566918 0.3144524 0.33965927 0.4505846 0.3836487 0.35873455 0.49138767 0.5440098 0.51475334 0.46739358 0.40876088 0.31930357 0.3724058 0.49040854 0.55284095 0.70303977 0.6974051 0.6356061 0.50615907 0.36549413 0.30726838 0.6541597 0.58209145 0.68825316 0.29033992 0.096877426 0.5598199 0.5752306 0.5738477 0.5349182 0.498334 0.6253234 0.26861462 0.5249926 0.5336176 0.50664675 0.456206 0.48200166 0.08208382 0.31796986 0.4049208 0.43478015 0.45974243 0.40867493 0.39833075 0.43611768 0.38784707 -0.121771865 0.15117837 0.15191326 -0.020008251 0.12206963 0.26335776 0.010927096 0.22949615 0.14796762 0.0082211755 -0.0701469 0.08522442 0.2552241 0.09318703 0.09953075 -0.020016365 0.19283625 0.48126894 0.57244945 0.6001774 -0.04903533 0.09287648 0.0011200719 0.38267225 0.6160078 0.5779343 0.004899201 0.10821877 0.5291643 0.44296664 0.3712148 0.1391037 0.37183088 0.5200932 0.39388084 0.16028836 0.09488497 0.089577824 0.3228665 0.5288497 0.49166536 0.30100596 0.12156175 0.045899205 0.23751329 0.5333185 0.40385056 0.37605917 0.22403605 -0.005512446 -0.0018247366 0.22002204 0.10563512 0.21174234 0.22684205 -0.017160524 0.26468047 0.006566599 0.041018978 0.20018084 -0.051131718 -0.009352967 0.24087214 -0.0041077062 -0.2378716 0.34795275 0.2803461 0.30593687 0.3518358 0.38117364 0.3853476 0.47219944 0.41986564 0.9109963 0.9384965 0.8945652 0.7421174 0.8738039 0.889428 0.85500467 0.68551815 0.7426021 0.8177146 0.79584587 0.7912428 0.7368033 0.71264505 0.7332482 -0.039311085 0.2016389 0.33478597 0.34038448 0.5792906 0.55156124 0.47613102 0.20036523 0.14917561 0.5038414 0.57802725 0.57487476 0.55675185 0.51911545 0.5574354 0.3825535 0.5123236 0.47929776 0.42776644 0.39331043 0.4704951 0.2316483 0.032707617 0.39005816 0.44719142 0.41329616 0.34187675 0.018384464 -0.12040108 0.036700025 0.37813884 0.3234321 -0.13064232 0.054500774 0.08243813 0.2879802 0.30587935 0.24209663 0.12613587 0.21322748 0.14251596 0.030907765 0.18733007 0.022644535 -0.10250741 0.21127367 0.3943045 0.5181216 0.5676123 -0.03335862 -0.047407415 -0.053140625 0.5054727 0.5159839 -0.025890864 -0.0355578 0.4560427 0.36606404 0.19898823 0.101883695 0.043669365 0.3892408 0.35373956 0.41714686 0.24353334 0.33224905 0.52347296 0.5182354 0.269183 0.5509394 0.5569213 0.53607607 0.46713284 0.108990684 0.17809442 0.49484938 0.33549494 -0.060856987 0.15480413 0.068222746 -0.021465518 0.15668985 -0.10196008 -0.009780414 0.085548185 0.21338451 0.23496518 -0.12654573 0.21639109 0.17291495 0.14498843 0.1245829 0.10053181 0.17356881 0.16779555 0.07852863 0.09578043 0.054350838 0.12978339 0.2048356 0.10912889 0.10116994 0.06343358 0.020014817 -0.059488796 0.87217057 0.9018544 0.83474845 0.6995083 0.8426287 0.83924127 0.79174227 0.59968674 0.6659676 0.82078576 0.78574526 0.4941338 0.48341566 0.45565435 0.6185348 0.73685795 0.51275045 0.47927085 0.38503307 0.6409515 0.6913072 0.70088303 0.6912575 0.44512346 0.41378582 0.30161574 0.6792775 0.62195516 -0.009215158 0.02258899 0.0046793 0.050900087 0.4393706 0.48774838 0.4677434 0.13857706 0.12369085 0.25865024 -0.002473101 0.4863691 0.45494145 0.29957747 0.00019992143 0.029673487 -0.057708174 0.43423572 0.4141028 0.3726213 0.341312 0.22726248 0.40122485 0.3514269 0.31590474 -0.039135903 -0.0464852 0.0035542995 0.36623177 0.35971865 0.26328796 -0.149216 0.25460452 0.3429841 0.25916544 0.12926707 0.2867329 0.14462289 -0.2728626 -0.030880436 0.08802295 0.38150305 0.44374517 0.482109 0.37230873 0.0926415 0.33123463 0.33608973 0.28155103 0.35866237 0.26493037 0.40292567 0.43800443 0.43644792 0.5059256 0.26630348 0.51569134 0.31434876 0.50601685 0.43969604 0.46001127 0.30512792 0.3754511 0.48717803 0.5408126 0.085326225 0.045993265 0.47505283 0.46995544 0.5421047 0.564909 0.10341055 0.12743866 -0.061463263 0.47516146 0.51642406 0.5447582 0.53942555 0.21787709 0.22037718 0.06421842 0.5524124 0.20836107 0.16432203 0.05580871 -0.0021381136 0.12229652 0.15876612 0.16903085 0.19367291 0.19291236 0.048660655 -0.121486396 -0.1833163 -0.028711101 0.10485261 0.10453086 0.075489655 0.027493779 0.15686698 0.29487705 0.33097348 0.78371465 0.7957939 0.75432444 0.617603 0.75031483 0.6956924 0.4085819 0.4248509 0.41968107 0.71399 0.4208128 0.4446852 0.46985304 0.45878455 0.36784264 0.31869233 0.5638505 0.6804295 0.4124406 0.39198834 0.52352244 0.65038466 0.14780259 0.26132315 -0.051085874 0.46435413 0.62821114 -0.21889013 -0.13170074 -0.01068422 -0.0037355423 -0.08240258 0.3938824 0.3984294 0.24838705 -0.04821253 0.0013700733 0.013270216 0.050497472 0.29126835 0.41444385 0.40017694 0.34010535 0.40962768 0.401843 0.3927151 0.40365237 0.40666652 0.41176498 0.40143943 0.4017272 0.18835868 0.12246872 0.34127846 -0.5084562 -0.54029757 -0.21291319 -0.14736837 -0.025421988 0.24039924 0.3350781 0.16236852 0.2729636 0.27864867 0.15005937 0.2506222 0.21645874 0.20301667 0.3538192 0.17110476 0.39273196 0.29144266 0.31637597 0.42517292 0.44196784 0.48470908 0.36888662 0.5807235 0.4061485 0.5722887 0.59654784 0.5094477 0.3792753 0.26965454 0.15733361 0.09027792 0.3274478 0.5764096 0.5972481 0.51137084 0.39945525 0.19337574 0.20817702 0.49553245 0.5357263 0.57287 0.20909324 0.14537904 0.015744826 0.07033344 0.254147 0.2787745 0.13749166 0.1861464 0.04370552 -0.14970157 0.22163546 0.23969758 0.23787487 0.19313057 0.019680917 0.041372333 0.29839653 0.20384881 0.40527195 0.23906854 0.29450345 0.32965505 0.48694015 0.4320219 0.39463428 0.47148687 0.4277306 0.56770194 0.4956627 0.530193 0.58652574 0.5693909 0.635599 0.6718612 0.6026893 0.3614722 0.36496964 0.46341762 0.54884565 0.53870386 0.6394974 0.607015 0.6406213 0.6012517 0.31724364 0.37663102 0.34701657 0.42329127 0.5170692 0.58779925 0.32183346 0.3410989 0.60884285 0.26271468 0.2266554 0.0633225 -0.29513696 0.43646854 -0.004073629 -0.1617342 0.017574176 0.30530995 0.3369691 0.32310215 0.30662748 -0.08610197 0.32079855 0.36923164 0.34206265 0.38719308 0.3750046 0.3920042 0.4027559 0.41396266 0.6091794 0.6416299 0.66623485 0.40658182 0.017896377 0.40438306 0.62330246 0.6596768 0.6639217 0.6496954 0.36463016 -0.18466139 -0.5127055 -0.3883471 0.482073 0.6050023 0.64070874 0.5379521 0.2876207 -0.33444446 -0.5591129 -0.39322972 0.02754376 -0.530593 -0.3605327 -0.24734102 -0.054660276 0.15671442 0.26494685 0.20473501 0.19878013 0.26005644 0.18717591 0.25320128 0.05294817 0.28149897 0.07905901 0.3170364 0.30399537 0.31836647 0.46608758 0.31100902 0.6025961 0.47766727 0.619359 0.6752269 0.60110223 0.12727524 0.36322105 0.58867216 0.59792745 0.72129333 0.6845314 0.61908233 0.47757605 0.24545182 0.15142235 0.19280106 0.25627542 0.27059722 0.39520738 0.45952222 0.5180092 0.55919904 0.21543238 0.008626128 0.21178138 -0.27281603 0.24708772 0.27321768 0.28611225 -0.16699615 0.29686022 0.24580503 0.36139807 0.32144043 0.33225906 0.38570186 0.35290033 0.31608135 0.43628806 0.5079146 0.39392292 0.8061361 0.8214538 0.8073838 0.7898324 0.83679867 0.8608701 0.85918546 0.8561866 0.8950732 0.5407229 0.5929395 0.61075604 0.54625636 0.46540678 0.503704 0.49369264 0.46904814 0.43452 0.48368317 0.34324035 0.40085915 0.4229085 0.46850044 0.4930817 0.2780949 0.2889502 0.4741574 0.26884028 0.056179635 -0.12492165 0.052174788 0.34828153 0.008264065 0.042785242 0.023936398 0.33821207 0.11576101 0.19256353 0.307936 0.31269002 0.31711742 0.3489551 0.31554744 0.34533045 0.5578008 0.60331637 0.62516415 0.35299748 0.5799682 0.6202687 0.6517613 0.6544454 0.3246646 0.6395646 0.26273137 0.56487596 0.14907114 0.28459436 -0.06638859 0.1692853 0.1664117 -0.029976616 0.36734027 0.28771448 -0.07949145 0.38465318 0.34949273 -0.07787811 0.4009269 0.35230893 -0.06922563 0.072934255 0.33697337 0.12914626 0.37332547 0.3301554 0.5279415 0.52394366 0.5508649 0.59784627 0.6745954 0.22341076 0.5162742 0.5991844 0.7537959 0.7277862 0.6502296 0.5507586 0.23522682 0.10549157 0.11468536 0.1786012 0.12125532 0.25155285 0.37637287 0.44872475 0.48064038 0.71662104 0.6792488 -0.38029528 0.3812721 0.2829575 -0.2581482 0.2870838 0.2688197 0.054063942 -0.12589478 0.09478444 0.2580533 0.29173815 0.2964369 0.26707783 0.35745883 0.23396465 0.28460184 0.3170139 0.27132714 0.3107171 0.3160712 0.30206674 0.7392434 0.61504847 0.6019782 0.6363669 0.7767892 0.76560783 0.7532794 0.6536052 0.7401651 0.8555021 0.7021812 0.78524435 0.8479624 0.91326 0.9122738 0.80094093 0.87717044 0.91777253 0.52663684 0.57637155 0.5807376 0.49937087 0.47280294 0.4550817 0.3662692 0.26405567 0.26135486 0.33033338 0.40585053 0.43173528 0.21732244 0.19653752 0.3427665 0.3861318 0.2044085 0.38660073 0.41294664 0.40232038 0.38743794 0.049668014 0.047560856 0.054929007 0.40622413 0.3902845 0.038593736 0.04461312 0.09660111 0.36387208 0.1860095 0.3157904 0.1730003 0.28488046 0.16990304 0.51128924 0.5472392 0.59702444 0.24308285 0.6335014 0.62510216 0.23275009 0.581504 0.21892256 0.4694487 0.18989523 0.22015496 -0.11360001 0.1584816 0.054273352 0.35478365 0.27347672 0.008272787 0.4009011 0.02236999 0.42108715 -0.0031520352 0.36275268 0.2912795 0.18817732 0.24238193 0.31564698 0.3423917 0.45342925 0.6601962 0.005468495 0.10316442 0.028887808 0.7406522 0.7063012 0.6249846 0.5531646 0.12940776 -0.27913544 -0.04582148 -0.022195682 0.016424617 -0.04556591 0.08131704 0.21745743 0.33917552 0.33635372 0.7002079 0.64308524 -0.21255912 0.0024494901 0.016934115 0.0177846 0.1679735 0.28686202 0.29845065 -0.14290076 0.26598382 0.29366052 0.2778584 0.26687372 0.2678342 0.30692306 0.1758548 0.34226206 0.3869756 0.41569537 0.1708354 0.23076123 0.14742376 0.12832145 0.25963262 0.0726607 0.21247292 0.26093435 0.30591172 0.29668948 0.47174954 0.53341556 0.65218085 0.62237096 0.8213123 0.670501 0.7213702 0.9158679 0.7105528 0.76227605 0.8714657 0.9237142 0.9159214 0.48731506 0.5335114 0.53874147 0.47688755 0.27716246 0.38705975 0.39530557 0.18301596 0.26720002 0.16934991 0.26507473 0.3084494 0.06474001 0.22621995 0.2459856 0.10859522 0.08077051 0.23019427 0.25498137 0.39913327 0.3604051 -0.08409749 0.4142717 0.40998453 0.12209111 0.16234522 0.41330916 0.08401102 0.39333892 0.08385004 0.2872995 -0.06918329 0.09847644 0.34991723 0.47206238 0.20197737 0.4701197 0.49460018 0.57680815 0.17122482 0.35193163 0.29262 -0.049837064 -0.0075455513 0.2933512 0.42906064 0.21192488 0.3695658 0.16073495 0.34588492 0.27195042 0.050940663 0.12152598 0.13583021 0.33922815 0.4127854 0.47466254 0.25689012 0.56882906 0.2305741 0.0014259368 -0.15697522 0.17238767 0.6745342 0.52031046 0.3783183 0.1671106 0.0857802 0.2084451 0.118654914 -0.14032999 0.02302754 0.11034319 0.21145123 0.29792452 -0.15301856 0.056326486 0.089729145 0.22705749 0.48487052 0.49626386 0.2936238 -0.063696146 0.02433251 0.38116753 0.43113887 0.5291734 0.5704938 0.28504866 0.26517117 0.29175207 0.36724764 0.11554658 0.54978937 0.31049025 0.35360765 0.40597582 0.46657503 0.49201477 0.12525101 0.21012336 0.123497725 0.122974105 0.23243764 0.28859058 0.4660067 0.61762375 0.63769907 0.6688915 0.71854556 0.7066625 0.7109134 0.80473554 0.74053633 0.7456627 0.80448306 0.90360415 0.8290007 0.38240263 0.46428928 0.4706656 0.44958603 0.07998287 0.3256052 0.24998894 0.18506403 0.17553839 0.18722795 0.07886255 0.03814724 0.18624261 0.17307308 0.22276562 0.168051 0.10927698 0.16890277 0.38012326 0.28473467 0.13245234 0.28172308 0.41302282 0.40609968 0.27323902 0.2368395 0.41681263 0.22403736 0.17302498 0.3782176 0.1368162 0.15880764 0.3081224 0.21175873 -0.34123385 -0.08582711 0.6110008 0.5542157 0.52915806 0.24016936 0.56951123 0.2687444 0.4863729 0.32277593 0.38036293 0.49662727 0.36630118 0.4058323 0.19175 0.24494159 0.15128437 0.26440835 0.197781 0.26133215 0.23346809 0.23222382 0.083106965 0.18120244 0.26822844 0.35431793 0.3887365 0.5002694 0.41818425 -0.03857105 0.27010843 0.28456023 0.39683783 0.49810886 0.36926323 0.18936703 0.13647532 0.35928124 0.31205404 0.22622544 0.11145598 0.51201653 0.2988426 0.38722628 -0.30623895 0.16632459 0.3401814 0.5787145 0.28071487 0.29811925 -0.042037003 -0.045277912 0.4274676 0.5102511 0.5654777 0.5997864 0.34755522 0.37480545 0.45671633 0.51765865 0.4869626 0.0015680343 0.14462389 0.16388987 0.19426353 0.23474228 0.47725654 0.6259221 0.5316024 0.70080876 0.7420901 0.76958275 0.6740284 0.6697085 0.75297344 0.7801379 0.83817625 0.8653482 0.76606095 0.12324317 0.20987757 0.19323422 0.1593722 0.13741362 0.07885313 0.19576934 0.116211645 0.15472281 0.07263138 0.3026876 0.06658855 0.117632076 0.32268563 0.346449 0.3942845 0.3617553 0.39527154 0.38058567 0.3499527 0.39496166 0.39182317 -0.6404744 -0.5650846 0.24612245 0.32698315 -0.59403884 0.2133761 0.33723086 0.2189509 0.060227793 0.1560117 0.2589983 0.2716621 0.6625825 0.5602532 0.6579186 0.6493578 0.6245218 0.11324524 0.2578122 0.63838375 0.6197064 0.55699825 0.62436044 0.49278468 0.5150856 0.63237584 0.4544374 0.5190426 0.5894846 0.38360316 0.018836074 -0.087152764 0.08050605 0.28109258 0.22507808 0.25586423 -0.016882114 0.24697238 0.59371746 0.30367887 0.38350222 0.25241327 0.17580009 0.015795037 -0.13803457 0.41748217 0.35507423 0.41584325 0.50246304 0.47906524 0.42197484 0.39770925 0.3514644 0.3979929 0.4666665 0.44260603 0.4018891 0.3579691 0.013624497 -0.35359573 0.5079315 0.15345998 0.3839948 -0.1352303 0.59786385 0.58438337 0.34850997 0.37123704 0.477