# vtk DataFile Version 2.0
Really cool data
ASCII
DATASET POLYDATA
POINTS 3794 float
-10.699514 21.978899 13.944919
-10.660518 21.991152 14.38134
-10.797281 22.64834 13.780966
-10.836447 22.64943 14.462049
-10.696628 22.648453 14.918787
-10.738372 23.386858 13.710503
-10.839496 23.33319 14.393956
-10.7074995 23.221096 14.874084
-10.682757 23.773937 13.976157
-10.644977 23.911304 14.262983
-10.038161 21.203358 13.856501
-10.013054 21.157068 14.264758
-9.909965 22.028868 12.875405
-10.358288 21.666664 13.70479
-10.303458 21.48786 14.425828
-10.278151 21.905727 14.9937315
-10.302327 22.593151 13.041447
-10.555643 22.44123 13.373409
-10.325424 22.605478 15.207691
-9.918117 22.60621 15.538182
-10.102071 23.228579 12.819908
-10.460772 23.556974 13.363311
-10.406302 23.460777 15.08102
-9.978714 24.05395 13.122784
-10.361329 24.035109 13.714955
-10.308553 24.117289 14.443525
-10.268896 23.874714 14.913658
-8.606863 18.120687 18.104074
-8.628376 17.979929 18.67619
-8.643654 18.03919 19.010994
-8.630406 18.396658 17.956938
-8.755685 18.51041 18.529512
-8.687549 18.58897 19.193304
-8.744606 19.147705 18.720222
-8.6918125 19.027542 19.071526
-9.551403 21.191946 13.168016
-9.461973 21.002758 13.639979
-9.297005 20.982891 14.783055
-9.119952 21.91956 12.235157
-9.365289 21.441837 12.826233
-9.138721 21.676992 15.388451
-8.9575 22.913284 11.966071
-9.138238 22.922804 15.677611
-9.273844 23.739042 12.262338
-9.763932 23.429008 15.4211445
-9.238361 23.11192 15.623416
-8.995317 24.252691 12.293051
-9.407407 24.238821 14.898152
-8.648302 26.033937 12.233953
-8.868266 25.032484 13.926324
-8.6459875 26.415913 11.882323
-8.879665 27.795176 10.89659
-8.998589 27.603905 11.372686
-9.1417265 27.8573 12.260314
-8.858329 27.724846 13.230271
-8.950008 28.475485 10.848408
-9.186067 28.528227 11.559783
-9.122442 28.521332 12.297054
-8.854418 28.49799 12.969223
-8.834986 29.257887 10.825887
-9.051005 29.309921 11.41156
-8.859347 29.393248 12.154465
-8.737501 29.77834 11.461572
-7.807861 17.151579 17.716133
-7.8952637 17.123081 18.420122
-7.9068623 17.136642 19.667458
-7.7835283 17.204597 20.269445
-7.83303 17.671116 17.031902
-8.253607 17.72983 17.747059
-8.406546 17.650478 18.39525
-8.293367 17.607368 19.259377
-7.9623976 17.661587 20.39204
-7.722395 17.705685 20.88541
-7.898691 18.614769 16.936636
-8.353133 18.425282 17.464626
-8.433309 18.209637 19.756886
-8.218196 18.464779 20.239082
-7.772165 18.493994 20.971504
-8.405482 20.41268 13.742047
-8.130741 19.427145 17.14709
-8.056698 19.588366 17.464731
-8.422767 19.369802 19.566542
-8.08638 19.277393 20.313978
-7.787797 19.085032 20.877537
-7.891622 20.963943 11.8969145
-8.269489 20.548851 12.899291
-8.467536 20.554493 13.602745
-8.712259 21.030304 14.895377
-8.000651 20.324007 18.69486
-8.104943 19.992275 19.279068
-7.748835 19.967253 20.22524
-8.333933 21.842957 11.706831
-8.26487 22.046005 15.7189665
-7.8919168 22.508156 11.348212
-8.305115 22.872507 11.65296
-8.445978 24.731813 11.637008
-8.719753 24.007832 15.130396
-7.912043 25.650536 10.434245
-8.046114 26.807365 9.892296
-8.336293 26.519768 10.655734
-8.420971 26.333233 13.559614
-7.834823 26.88819 14.112263
-8.231344 27.600039 9.9557295
-8.507972 27.520338 10.410418
-8.594562 27.321184 13.451029
-8.293769 27.569288 13.845961
-8.205307 28.46214 10.061372
-8.623304 28.160152 10.453515
-8.446403 28.512806 13.471882
-8.198423 29.144217 10.288143
-8.454317 29.443989 10.63536
-8.436955 29.473473 12.585845
-8.18939 29.063564 13.213275
-8.324402 29.823856 10.982627
-8.41081 29.908178 11.534259
-8.33406 29.819696 12.0859165
-6.625317 15.074824 7.100116
-6.730621 14.92944 7.6566343
-6.748172 14.95458 8.331913
-6.689716 15.526738 6.964584
-6.890169 15.654433 7.571894
-6.887815 15.549097 8.372972
-6.732568 15.718358 9.164795
-6.6382995 16.616467 7.0257773
-6.8998647 16.297539 7.632678
-6.8986077 16.208307 8.420698
-6.7879596 16.469246 9.3977
-6.9117723 17.215832 16.245914
-6.8741665 16.716806 16.717045
-7.351844 16.775106 17.592285
-7.218237 16.590033 18.260277
-7.3755536 16.708853 19.525412
-7.3373384 16.888844 20.524984
-7.071431 17.06231 21.100185
-6.60888 16.973202 7.7044992
-6.7450795 16.943886 8.4513855
-6.653256 17.303442 9.561953
-6.6821747 17.127455 10.2578335
-6.583952 17.997604 11.341488
-7.517348 17.423773 16.75004
-7.3431396 17.614006 21.197845
-6.589363 17.786589 9.487539
-6.558719 18.236443 11.662708
-6.6517863 18.567202 12.591936
-6.813994 19.261915 13.537965
-7.1836433 18.140837 15.875303
-7.332378 18.49731 21.353247
-6.9800024 18.530361 21.58011
-7.094826 19.702675 14.394469
-7.4665895 18.978313 16.293709
-7.251898 19.417482 21.25435
-6.821644 19.421133 21.571793
-7.509854 20.807957 11.740747
-7.270366 20.450224 15.208491
-7.3763227 20.432543 16.425549
-7.4269204 20.511208 19.642557
-7.3868394 20.192543 20.485123
-7.00878 20.00866 21.181868
-7.3166814 21.81608 11.177475
-7.25845 20.745163 19.19649
-6.9775853 23.003134 10.496136
-6.999129 22.521847 17.047308
-6.91594 23.712284 9.960465
-7.323884 23.706194 10.549548
-7.379686 22.90068 16.70771
-6.9363174 24.820362 9.467794
-7.5455723 24.673391 10.256398
-7.138783 23.95518 16.092836
-6.8911633 25.77179 9.321126
-7.143597 25.579866 9.625194
-6.9944944 24.652393 14.833349
-7.2313185 26.936958 9.317406
-7.5439196 26.392721 9.461821
-7.4966893 26.424759 14.05583
-7.242561 27.305542 9.310115
-7.669964 27.521866 9.506995
-7.475874 28.266022 9.66037
-7.352516 28.268139 14.022968
-7.5649104 29.130396 10.126066
-7.5935316 29.520515 10.482755
-7.6927786 29.126772 13.300265
-7.720646 29.824865 10.905128
-7.6172724 29.959522 11.430506
-7.812719 29.737112 12.423733
-5.9378304 14.289924 7.064632
-6.1957245 14.316072 7.697913
-6.036063 14.292057 8.340095
-5.76756 14.876816 6.2337294
-6.2226725 14.642591 6.8787284
-6.463311 14.635989 7.7414484
-6.4372163 14.541989 8.362606
-6.5295906 15.059783 9.067758
-5.942354 15.042005 9.858991
-5.618082 15.206282 11.407254
-5.9397116 15.664618 6.0558753
-6.4475455 15.483704 6.6137714
-6.385151 15.909127 10.405298
-5.9003663 15.85471 11.137297
-6.4212503 16.175247 17.670359
-6.2081957 16.466751 20.102373
-5.541003 16.359825 3.5188403
-5.736298 16.067005 5.903367
-6.4234734 16.486301 6.612873
-6.181711 16.846064 11.497292
-6.0515475 17.031622 15.830127
-6.625317 16.935076 16.312403
-6.659366 16.577583 20.562298
-6.6088233 16.86522 21.040632
-5.9193087 17.237127 6.8416305
-6.3442163 17.216412 7.467709
-6.3833966 17.335264 8.413885
-6.3563466 17.310732 11.297165
-6.3394637 17.801926 12.171564
-6.1595597 17.977377 13.380851
-6.1510057 17.717018 14.999369
-6.4661465 17.77426 15.596334
-6.715828 17.32708 21.414848
-6.502311 17.798306 21.567932
-6.035062 17.725702 8.008572
-5.9394946 18.083994 8.916441
-6.1413116 18.347559 9.695717
-6.426087 18.07659 10.746349
-6.4142227 18.553194 13.511867
-6.5099435 18.542627 21.653852
-5.712252 19.666893 10.550087
-6.398592 19.42534 21.665688
-6.358143 20.008896 11.200213
-6.47311 20.200333 21.379456
-6.183189 19.878355 21.591179
-6.092369 20.721199 20.650457
-5.8448296 22.851885 9.965636
-6.232543 22.740055 17.533426
-6.054537 24.651833 8.847013
-6.4274774 24.08598 16.557295
-5.641443 24.363695 17.728733
-6.2047477 25.416687 9.023948
-6.6540036 26.7922 9.197283
-6.6298704 27.411736 9.248165
-6.327062 27.387882 14.396809
-5.821739 27.545317 15.406966
-5.6924715 27.438517 17.601015
-5.5931516 27.829054 18.20585
-6.8472834 27.864014 9.3868265
-6.701783 28.524014 9.618752
-5.996383 28.429129 14.121825
-5.9895806 28.151382 15.367139
-5.735326 28.302757 17.187712
-6.470942 29.025928 10.042308
-6.55467 29.403564 10.610034
-6.4082775 29.46775 11.435843
-6.854881 29.401573 12.501251
-6.345107 28.652569 13.508697
-6.865523 29.74125 11.680865
-4.5974455 12.0517845 14.014009
-4.917543 12.78502 13.635795
-4.732817 12.561375 14.334736
-4.8493133 12.958985 15.05285
-4.6871095 13.265761 16.515303
-5.1756606 13.985508 5.975988
-5.4375362 14.054836 6.6758327
-5.223044 13.822322 7.4907804
-5.6134167 14.312793 9.00473
-4.67618 13.7876625 11.095226
-4.858969 13.743919 11.621643
-5.0244966 13.619536 12.395079
-5.1857615 13.703296 13.819697
-5.151897 13.613875 14.441818
-4.960596 13.340707 15.437263
-5.1116495 13.875837 16.373026
-4.8929305 13.774399 16.940727
-4.93121 15.069609 2.8066087
-4.9326677 15.042859 3.1417873
-5.3875914 14.559069 9.743942
-5.0805736 14.424374 10.743762
-5.343285 14.836625 11.547596
-5.0765734 14.180087 13.381016
-5.1473994 14.680761 14.535837
-5.2714767 14.597612 16.351612
-4.672679 14.266079 17.490274
-4.864169 15.843184 2.2674506
-5.1551313 15.721965 2.679978
-5.3175783 15.551878 3.3410156
-5.386867 15.898887 5.737168
-5.2873063 15.619145 12.012525
-5.220334 15.596416 13.391334
-5.0530157 15.936673 14.972186
-5.7583213 15.974824 17.854242
-4.9953427 15.615398 18.204844
-4.868203 16.447233 2.2828896
-5.2294397 16.406647 2.6767704
-5.4421353 16.38911 3.4036465
-5.1975474 16.380495 4.125188
-5.1106353 16.426765 5.9119554
-5.588333 16.708332 12.648555
-5.413384 16.520758 19.204554
-6.063328 17.072517 21.10289
-5.1038713 16.909904 2.8530557
-5.153057 16.981422 3.3470612
-4.826006 17.045486 4.5580173
-5.221335 16.993166 6.031197
-5.2767963 17.188122 6.5058074
-5.922102 17.542183 21.321905
-5.597531 18.630417 21.496279
-6.020821 18.321934 21.690199
-5.5293546 19.371445 10.287481
-5.6266317 19.593378 21.551472
-5.8218184 19.519823 21.642801
-5.2486396 20.512863 20.67265
-5.572429 20.008991 21.35522
-5.9423914 20.051529 21.585838
-5.5964675 22.012344 10.618973
-4.9846234 21.563202 19.447912
-4.9317083 23.182539 8.255757
-5.08187 22.800339 8.86265
-5.514162 22.959501 9.275126
-4.875507 22.2083 19.210785
-5.112027 23.93538 8.095528
-5.587569 23.773344 8.664719
-5.276402 23.42871 18.36933
-5.210281 24.312414 8.1231575
-5.4372764 24.034803 17.894892
-5.0680842 24.583977 19.13408
-4.807986 24.775043 19.809538
-5.021022 25.180565 8.315731
-5.44501 25.644394 18.624132
-5.1515803 25.584816 19.384338
-4.8319745 25.683592 19.94356
-5.7625704 26.739225 9.143152
-5.300529 26.41243 17.478117
-5.507544 26.2202 18.669708
[...]
POINT_DATA 3794
SCALARS features_00 float 1
LOOKUP_TABLE default
0.8123467 0.84408706 0.8344021 0.8738681 0.8750578 0.8217168 0.8608175 0.86152923 0.8310218 0.83212364 0.6720067 0.68743086 0.639916 0.7385653 0.7712682 0.8407266 0.7192572 0.7779058 0.8477615 0.78632104 0.6556338 0.766065 0.8267977 0.6648334 0.7761029 0.7940141 0.7976389 0.5292871 0.5555309 0.57372475 0.5267055 0.5616789 0.5988412 0.59173834 0.6041575 0.57381976 0.5824022 0.62298906 0.45448473 0.5377159 0.7397768 0.3597606 0.62914467 0.39670557 0.7342428 0.63931245 0.29241174 0.6387724 0.41269532 0.42869022 0.46268952 0.639969 0.6325494 0.7279318 0.6242052 0.77324253 0.8468817 0.8413168 0.75338566 0.8657336 0.91795564 0.90067255 0.9208796 0.46009246 0.49436474 0.6012404 0.68161523 0.42937666 0.49151105 0.5263089 0.570523 0.68314886 0.7363777 0.4385391 0.49339387 0.61929566 0.6576542 0.7287321 0.37209094 0.44346392 0.48752838 0.628271 0.66273683 0.7108525 0.2960005 0.3874546 0.4057304 0.52540296 0.59005916 0.61104083 0.6510229 0.2765401 0.4992185 0.14165768 0.21213275 0.095411025 0.44518635 0.27896008 0.44004261 0.4095808 0.3462251 0.3269384 0.55266553 0.5585452 0.5247654 0.4661477 0.67573667 0.6760979 0.6455525 0.7754221 0.8489603 0.83574045 0.70444 0.8785447 0.90291476 0.87944484 0.5525184 0.54500365 0.5336496 0.5835731 0.59473866 0.5674342 0.4921021 0.5641892 0.5876458 0.5503833 0.43543842 0.31669024 0.36188316 0.43151927 0.4466638 0.58997226 0.7155634 0.7465506 0.51125026 0.47154212 0.36816937 0.32030725 0.18810706 0.39159477 0.75823057 0.34143722 0.14513049 0.002462715 -0.110406 0.27817544 0.74353397 0.7285522 -0.09149582 0.30964404 0.71095264 0.68193597 0.1882111 -0.089155205 0.049416166 0.59069854 0.6665944 0.6750351 0.08522229 0.5218122 0.051456977 0.03636422 0.14506239 0.09303713 0.13444042 0.21677133 0.19625145 0.10566783 0.29969496 0.28022328 0.075149745 0.43467236 0.38083905 0.21771371 0.47402093 0.51570606 0.60286176 0.4333063 0.7147596 0.7593979 0.6401049 0.8038522 0.8070645 0.79131734 0.46916032 0.47934067 0.44534233 0.5058738 0.5104712 0.5149438 0.49046582 0.4695952 0.2922503 0.09402933 0.5312475 0.572602 0.26608235 0.14452921 0.39688593 0.5487834 0.65270525 0.4554736 0.54991007 0.15017723 0.1498569 0.2997617 0.67019963 0.71067894 0.42936546 0.47332522 0.42228648 0.18414375 0.07777028 -0.103530906 -0.020382699 0.19130966 0.74737906 0.7352683 0.36664653 0.28342873 0.26025862 0.25526363 -0.13760823 0.70141625 0.06593255 0.65224516 -0.01137263 0.6097303 0.6147683 0.53863263 0.1539953 -0.053034265 0.28705198 0.012095526 -0.032458406 0.27877498 0.40194964 0.46839768 0.19360627 0.27978116 0.3688439 0.39434198 0.52918315 0.5933372 0.25299397 0.3226669 0.42635888 0.5877007 0.58249116 0.518477 0.5822941 0.3452263 0.6432854 0.32803544 0.32264578 0.30185157 0.26954135 0.23662737 0.27850702 0.39496237 0.3463158 0.36360967 0.06908132 0.11089331 0.17696416 0.28351188 0.28597334 0.25635025 0.23032925 0.22478068 0.6631367 0.62359595 0.24111995 0.055811383 0.07220407 0.2102359 0.18747199 0.21546018 0.17455593 0.73552406 0.74048936 0.67146456 0.39174077 0.08388608 -0.003624443 -0.11304042 0.2862338 0.07546839 0.75047874 0.76174164 0.67723745 0.44809183 0.3154804 0.03730993 0.23513752 0.65491164 0.72333544 0.63340545 0.22567937 0.26373821 0.30417275 0.6675874 0.5967486 0.6708339 0.074782744 0.5795127 0.6028528 0.4966123 0.56517226 0.5904118 0.005078798 0.18533264 0.33556384 0.27081826 0.2479403 -0.12163358 0.383164 0.31881532 -0.07049866 0.39464164 -0.039462432 0.076609306 0.115329914 0.40415227 0.15439066 0.14721896 0.14210059 0.3767531 0.28126603 0.23142888 0.2144515 0.38236922 0.33702093 0.3521189 0.33378989 0.45926225 0.44140062 0.43162715 0.3892824 0.45689076 0.4257413 0.38449237 0.2974149 0.20974417 0.25865173 0.3215221 0.37785006 0.43709403 0.43186682 0.32059538 0.35010293 0.4256992 0.42763156 0.44351035 0.44352818 0.41753858 0.43019676 0.430493 0.34764555 0.38410372 0.4148391 0.3939058 0.30496156 0.21447209 0.3615244 0.36204684 0.3511595 0.27897775 0.3671508 0.21284838 0.18487415 0.321438 0.35803294 0.32728964 0.27785474 0.109987445 0.14672066 0.20699719 0.24598747 0.2509385 0.23237607 0.12912887 0.09891227 0.23431388 0.21961474 0.19730914 0.63662195 0.6129552 0.49675843 0.1554775 0.6931453 0.025291435 0.6959372 0.1060001 0.055929925 0.66776836 0.6704688 0.49154845 0.24551633 0.026084315 0.14903261 0.063635655 0.3461543 -0.0015524179 0.49437842 -0.20686187 0.49423948 0.4006948 0.21652631 0.43636015 0.17018744 0.44895774 0.11946816 0.08356439 0.41308743 0.34875655 0.12740508 0.093304634 0.2648176 0.2227712 0.33453947 0.26673803 0.39163822 0.29097834 0.26301157 0.18875411 0.21688916 0.24903122 0.4205702 0.4034465 0.3096707 0.3724501 0.40168104 0.41288468 0.39735642 0.4749089 0.49796975 0.40669018 0.426507 0.45080584 0.44307354 0.3491356 0.34343806 0.3620365 0.3920492 0.4272611 0.328175 0.23024918 0.25476828 0.253677 0.33896935 0.33676577 0.30852088 0.3625288 0.2272698 0.27265576 0.3494947 0.35363698 0.3298965 0.31098986 0.2552614 0.15981066 0.23226896 0.26916313 0.1816363 0.19467922 0.19268209 0.24816883 0.2647143 0.06925544 0.2448491 0.22340688 0.6091485 0.18917462 0.6363691 0.061855413 0.011273302 0.63483775 0.5455089 0.5661761 0.4399683 0.31146058 0.229008 0.005499974 -0.27562472 0.07689947 -0.12818216 -0.25624293 0.08086152 -0.16371271 -0.12736827 0.03950103 -0.11670585 0.28365672 0.2141158 0.23809074 0.25046206 0.3268408 0.2285268 0.25721645 0.36823702 0.4622999 0.32370216 0.46053335 0.27002347 0.080349535 0.18385592 0.5711992 0.22706155 0.16436926 0.1181477 0.5175216 0.644712 0.19206509 0.27339554 0.4491616 0.5785973 0.67029715 0.19440661 0.19040364 0.19591045 0.21144095 0.3518732 0.44341236 0.5628175 0.20011158 0.2581413 0.3589936 0.39755675 0.33720607 0.5922574 0.59885967 0.48083588 0.49821496 0.5706394 0.537943 0.48440582 0.3762098 0.4145644 0.4460631 0.33556575 0.21343488 0.3478604 0.35951513 0.24626282 0.24006203 0.21348444 0.1893031 0.25559372 0.28464073 0.29155868 0.3121497 0.31855083 0.27483785 0.24734068 0.32322562 0.1211136 0.17953634 0.23230493 0.32807022 0.31904823 0.26664868 0.27546293 0.26846337 0.24425888 0.16051583 0.4757161 0.44179565 0.0048492253 0.38699684 0.41037986 0.018791676 0.4094066 0.3617803 0.18935369 -0.16278268 0.46866143 -0.15487589 0.09427504 0.49540186 0.5058199 0.43760228 -0.19828227 0.22429056 0.46601287 0.48987156 0.4980198 0.46324885 0.38439372 0.20958024 0.32068065 0.36817744 0.5182311 0.51456153 0.5508815 0.4798736 0.4173047 0.58402216 0.5850718 0.69037515 0.6235186 0.52723694 0.46329007 0.37476844 0.4167674 0.6381283 0.6815932 0.7217097 0.5793865 0.4312033 0.42519695 0.33519512 0.2155037 0.66848433 0.7024027 0.7054473 0.55470335 0.28435794 0.15763144 0.20476985 0.5259604 0.6307844 0.08732861 0.12197078 0.63784754 0.7019857 0.19976619 0.7087202 0.73373216 0.2068286 0.18755442 0.18973778 0.23981005 0.4499087 0.5671528 0.67467344 0.113508664 0.29479462 0.06601742 -0.14333685 0.3599109 0.56580865 0.6170689 0.62730414 0.6018097 0.51032287 0.5634577 0.54945266 0.5102976 0.40847415 0.20572616 0.14956643 0.1728335 0.2071239 0.29986793 0.31598866 0.16554864 0.06640722 0.13570556 0.21870127 0.2105111 0.3493771 0.3105461 0.079656586 0.34690425 0.058846503 0.18801685 0.2224899 0.370349 0.26436824 0.18773736 0.26142514 0.23488426 0.08259035 0.07445272 0.027867682 0.029280573 0.31620198 0.1069545 0.16767997 0.26469314 0.24895039 0.24715817 0.3002655 0.23070139 -0.2228367 0.08051461 0.46647477 0.06499143 0.45327154 0.12216289 0.43972924 0.39236218 0.4341759 0.46990335 0.3924775 0.53270364 0.32992482 0.31227374 0.40243375 0.5963954 0.43583423 0.29993367 0.19059935 0.262179 0.10988025 -0.04978399 0.64030266 0.68444073 0.68853396 0.5275563 0.03078329 0.09500373 0.62585855 0.6635065 0.6473136 0.72350395 0.1932143 0.20436192 0.7393278 0.20999348 0.18893158 0.16243047 -0.009493198 -0.102574036 0.615636 0.6925124 -0.17330688 -0.18308853 0.17492235 0.4220867 0.5427017 0.3833525 0.3220186 0.29312235 0.49514243 0.5051576 0.44136894 0.368316 0.536352 0.5448739 0.607123 0.64073735 0.5997704 0.4129345 0.52569586 0.46804076 0.329339 0.25691634 0.08630987 0.02113226 0.15467505 0.17591472 0.16427115 0.31427017 0.27805287 0.041666087 0.16397859 0.11000381 0.3941416 0.36861485 0.014684843 0.42064768 0.39375237 0.06805848 0.16831753 0.23849231 0.42997584 0.39512077 0.23981568 0.34993073 0.2139658 -0.0317066 0.065574616 0.13755393 0.17953862 0.127113 0.30739546 0.42752436 0.12927544 0.3335559 0.4542541 0.24892709 0.16146332 0.13932824 0.15635599 0.08226816 0.06906623 0.33769813 -0.16327399 0.028379388 0.365432 0.24675487 0.12853949 0.33476204 0.26380226 0.29365626 0.46849686 0.47150123 -0.16823706 -0.28027356 -0.36967373 -0.22358948 0.2166878 0.53801274 0.5690787 0.16424578 -0.03734549 0.25072977 0.58614314 0.6205049 0.43450448 0.31837362 0.32543653 0.6009797 0.6293174 0.63803446 0.61246014 0.48816144 0.12937106 0.63498956 0.62237763 0.6238086 0.608156 0.16857831 0.03263768 0.6657984 0.1679985 -0.14140469 0.5356696 0.6058457 -0.06062006 -0.059217103 0.3770024 0.44451642 0.5211804 0.5285809 0.42468697 0.619402 0.5959217 0.5461619 0.51030135 0.52918077 0.6546836 0.64601475 0.5801629 0.5633509 0.53446066 0.6083502 0.39710778 0.30155575 -0.117309056 -0.11506985 -0.04874402 -0.13687824 -0.016165134 0.07572179 0.12047136 0.11886881 0.16484585 0.31054205 0.22530375 0.1503238 0.09910094 0.12563534 0.2411955 0.4084054 0.35293406 0.10918148 0.20620969 0.43604824 0.115025885 0.45325747 0.44627273 0.18840775 0.1969422 0.18185416 0.36100024 0.33180398 0.20080553 0.028144702 0.07068981 0.17721236 0.17562391 0.20033932 0.23951662 0.24848437 0.15898322 0.18390028 0.29829133 0.3296724 0.36659485 0.17115885 0.06458412 0.42529565 0.42953026 0.45735067 0.4667669 0.4641543 0.33596608 0.36861837 0.4634038 0.48732215 0.028294355 0.024137035 0.009587714 -0.29511404 -0.34650114 0.03485596 -0.11105625 0.010868721 0.3230213 0.1979605 0.42807573 -0.4139288 0.49440956 -0.15966228 -0.2095873 -0.138098 0.02759223 0.5591084 0.24820569 0.57789665 -0.1917041 0.26877818 0.56547135 0.5944253 0.4498755 0.10780242 0.47259536 0.60703224 0.6033015 0.54278183 0.018317185 -0.10897199 0.5513731 -0.029063236 0.38743442 -0.050927483 0.21146199 0.31210586 0.30505177 0.5198225 0.5294614 0.6182353 0.65763986 0.55905247 0.559716 0.57598627 0.69899786 0.7049551 0.65686417 0.5890878 0.5934873 0.4606139 0.20506024 0.39933166 0.42730707 0.1941593 0.15510088 -0.022738516 -0.19963086 -0.118256494 -0.07966019 0.0026198719 0.113596216 0.12541151 0.1889078 0.23942193 0.3807006 0.27564767 0.13488364 0.25692773 0.31723678 0.43868077 0.42186943 0.31305367 0.45654216 0.4306318 0.25631562 0.26748845 0.25319248 0.45958662 0.08722542 0.20182692 0.23096773 0.22119893 0.21917287 0.16223185 0.39699656 -0.18234102 0.07350981 0.09374907 0.18180448 0.19892202 0.30360872 0.24220589 0.26999143 0.26490095 0.3500366 0.11383362 0.40952888 0.40667152 0.4736907 0.46446532 -0.011449739 0.5049106 0.49815065 0.084427714 0.43849477 0.49936628 -0.26948634 -0.009149291 -0.009798486 0.36608896 0.42711025 0.46426606 -0.26427564 -0.3798192 -0.031720042 -0.10701696 -0.05010745 0.022562373 -0.09688343 0.28860384 -0.026579045 -0.003962815 0.2943035 0.38865972 -0.09085373 -0.14268167 0.40069342 -0.031727627 0.51646346 0.18453068 0.081979945 0.49563298 0.51575005 0.5426232 -0.1493289 0.17815566 0.5351243 0.5296306 0.2776738 0.27391362 0.55865693 0.5753639 0.54816484 0.47222492 -0.113994405 0.42295507 0.5753928 0.4893661 0.33886617 0.5651641 -0.081134975 0.4570074 0.049584333 0.1467868 0.015282854 0.17330754 0.43089908 0.5538951 0.6270998 0.59218025 0.5844796 0.675002 0.7267822 0.7051088 0.62101 0.60006356 0.2784379 0.18933026 0.11418185 0.022046342 0.057647035 -0.12558879 -0.14974296 -0.09619108 -0.09714208 0.057967 0.11039175 0.19481218 0.20677423 0.38911828 0.44004065 0.6602091 0.72167623 0.7467326 0.02726159 -0.1286315 -0.16142312 -0.1720842 0.34788412 0.4600227 0.50741285 0.7118509 0.7343148 0.12818319 0.47629145 0.31450087 0.31111997 0.32405236 0.40691924 0.29232505 0.3053507 0.30222264 0.26283076 0.43095535 0.18073922 0.24164134 0.27514336 0.28103405 0.21835767 0.18027347 0.44935077 0.15112698 0.11305184 0.42407393 -0.1776518 -0.036289856 0.15013781 0.14565244 0.22072357 0.24844925 0.30210212 0.0917457 0.3841254 -0.005872816 0.43283337 -0.02042988 0.48194593 -0.04614063 0.48186958 0.47533363 -0.091451645 -0.041450046 0.27352414 0.3952372 0.44647938 0.026097137 -0.13518953 -0.27434444 0.0503081 -0.20007797 0.15396518 0.20078643 -0.17013854 -0.19442222 0.09105149 0.41300702 0.3687775 0.26384133 -0.06779332 -0.031703703 -0.1526913 0.35026747 0.1891756 0.18253905 0.44532466 0.5305563 0.5245107 0.43164206 -0.061464615 0.3097253 0.25989735 0.22282872 0.53631306 0.5461646 0.52753574 -0.02572601 -0.026709154 0.104720265 -0.18973507 0.12386089 -0.065713756 -0.03062747 0.2423172 0.3514495 0.512374 0.47674155 0.5787853 0.5683638 0.5758355 0.6334698 0.6469036 0.61949664 0.63047755 0.59888196 0.7291795 0.68174195 0.53109485 0.650447 0.5573766 0.4030995 0.2887135 0.48497105 0.21958858 0.05277873 0.16185753 0.18171273 0.5486243 0.64727104 0.7034471 0.73030186 0.39399788 0.2837659 0.047178365 -0.11924388 -0.07481015 -0.03169335 -0.10582118 -0.14417768 0.0557246 0.15568122 0.1967549 0.2675882 0.37326995 0.46713534 0.49475807 0.5324616 0.62751025 0.7371532 0.7546395 0.7650362 0.18612899 -0.047840074 0.5056166 0.38550454 0.75707424 0.7615913 0.4483478 0.2108523 0.25573176 0.6818979 0.7421982 0.74408925 0.09633323 -0.009082407 0.28575563 0.19779664 0.26161683 0.2756946 0.4027703 0.17463711 0.05403116 0.14819516 0.3094781 0.22358143 0.24345523 0.2575925 0.25059253 0.013738465 0.32874942 0.27159074 -0.03154161 0.41098356 -0.03852261 0.39289957 -0.08749427 0.36754742 0.021436494 -0.06491866 0.123357356 0.23889257 0.11314912 -0.1709811 0.16548193 -0.30632812 -0.30806297 0.06166683 0.09120777 -0.34471986 0.31508428 0.08856003 -0.15267096 -0.091442 0.33471328 0.4139136 0.15776558 0.15219009 0.44592696 0.45237333 0.3912003 0.511082 0.5173074 0.20658821 0.1836497 0.4909088 0.50135356 0.47619766 0.41580883 0.17173873 0.6406361 0.65547955 0.11351149 0.1724999 0.21303082 0.032143734 0.18417597 0.47794405 0.27335474 -0.05676502 0.6869777 0.6714804 0.3570768 0.3309753 0.20403114 0.24317269 0.35881183 0.68057144 0.7693225 0.8039128 0.438492 0.44913065 0.32934248 0.5426847 0.8287084 0.77837974 0.70346147 0.7850858 0.7854984 0.70811313 0.62592304 0.6940677 0.72475576 0.37833473 0.3342262 0.38509098 0.3806433 0.520705 0.55899614 0.62034786 0.6117113 0.46039736 0.13131648 0.20134446 0.27163312 0.17798868 0.40452486 0.50322145 0.5861956 0.67286396 0.71624935 0.7340945 0.39578116 -0.07885013 -0.17133516 0.07704449 0.21498 0.38523215 0.40956172 0.4229762 0.7604509 0.3098331 0.34674639 0.461043 0.1218308 0.1286082 0.7448872 -0.024606131 0.1566503 0.15359317 0.6987752 0.73098123 -0.20613784 0.15212108 0.66467166 -0.11215764 -0.018083578 0.13857259 -0.032393146 0.4418377 0.48427868 0.45741463 0.2483826 0.26719657 0.4739267 0.35725245 0.29405412 -0.070991896 0.26973456 -0.10195758 0.1383029 0.052910414 0.21887422 0.2735873 0.08448005 -0.35075858 0.06994355 0.07510683 -0.39446193 -0.2556774 0.11933455 -0.15223679 -0.11857942 -0.012315369 0.33403915 0.056863382 0.33936876 0.25518173 -0.09094616 0.024856156 0.035603315 0.46436676 0.18938059 0.40889877 0.3494381 0.09058744 0.57942224 0.28823358 0.25269037 0.3834921 0.40314966 0.31768507 0.39564893 -0.0030493587 0.22232258 0.6855775 0.6930189 0.6946074 0.61025316 0.2561323 0.24052359 0.45561922 0.7012894 0.35778695 0.63976455 0.71728534 0.39051813 0.7695095 0.77949286 0.39516258 0.17746457 0.108494855 -0.07683087 0.021535784 0.8726157 0.8686465 0.8528305 0.6959443 0.79178977 0.8878578 0.83941007 0.86277664 0.8327754 0.7305097 0.7936031 0.56978536 0.50732946 0.5951954 0.2628938 0.34991163 0.42508584 0.45261192 0.37936115 0.28568083 0.45520014 0.5106149 0.5557673 0.5564424 0.5523592 0.46899548 0.5072614 0.032275703 0.1875081 0.27042758 0.031284146 -0.009088341 0.62828946 0.65861285 0.40594006 0.350617 -0.32871756 -0.17238194 0.0527856 0.23928028 0.7055357 0.32108185 0.05750753 -0.24179798 0.082534514 0.069129445 0.7122049 0.6940539 -0.22845349 0.15261278 0.053054787 0.69612706 -0.15584852 -0.32229474 0.09734911 0.441917 0.08393374 -0.075969845 -0.042015754 -0.31461823 0.57187223 0.46505296 0.5721934 0.34690621 0.52444625 0.31128612 0.39067963 0.4644355 0.47691655 0.3616139 0.4435844 0.32279703 0.32518795 0.41786128 0.15805602 0.2658565 0.37628943 0.06707672 0.17220141 0.008516999 0.24519241 0.21803442 0.18150425 0.24643359 0.27676645 0.09643154 0.22741924 0.2524289 0.2952407 0.26178086 0.09668066 0.2183739 -0.35229304 -0.030974913 -0.05846393 0.33248 -0.1885372 0.096148685 0.44172895 0.339907 0.1453352 0.09386514 -0.39091864 0.064007774 0.5367508 0.23802559 0.044657603 -0.24655792 0.08967856 0.13844053 0.63290095 0.62166107 0.36452007 0.27233857 0.3155456 0.28418005 0.15805995 -0.29473054 0.28029168 0.7221646 0.71640444 0.60127485 0.22404647 0.31132692 0.26147375 0.43993297 0.7095494 0.6894991 0.4086786 0.593591 0.6876201 0.43640125 0.77291113 0.37731135 0.23717639 0.03747889 0.1921623 0.1570971 0.18367057 0.9010587 0.8566004 0.52548003 0.6335816 0.7400528 0.87021065 0.919403 0.8074081 0.84434044 0.8394496 0.8044626 0.7402135 0.6700078 0.516423 0.4733902 0.44163358 0.39041525 0.5104311 0.5330663 0.5604316 0.5447409 0.5902686 0.34044746 0.45780665 0.3664342 0.3016815 0.031569634 0.48760593 0.5186806 0.5496599 0.53236556 0.5233406 0.44977933 -0.2675215 -0.16324833 0.07691541 0.032883942 0.10466579 0.35293803 0.4216333 0.36358213 0.63092697 0.3922662 0.38527665 -0.24247272 0.14565837 0.3061658 0.37038663 0.44412005 0.6669062 -0.036459014 0.33138895 0.34484494 0.07036438 0.6734757 0.09016706 -0.026245605 0.68452036 0.6836829 0.27730864 -0.006905988 -0.45953774 -0.47458804 -0.0909071 0.5099703 0.63048726 0.526448 0.4675724 0.38502213 -0.40599653 0.5904776 -0.32989982 0.121360876 0.6021304 0.51535004 0.5506333 0.5203477 0.4871451 0.51409906 0.07187121 0.44092125 0.05983547 0.28387004 0.40795642 0.1280003 0.05816717 0.19017716 0.20914422 0.22870143 0.33310097 0.40648222 0.2109996 0.26658973 -0.017221078 -0.49817604 -0.023782235 0.14098702 0.37722325 0.008658788 -0.14844006 -0.10629217 0.13336053 0.19392616 0.55397797 0.11083713 -0.024043482 0.05976125 0.23174357 0.61828935 0.23566349 0.12779157 0.6675817 0.32684493 0.29346704 0.15055275 0.3239232 0.721949 0.7073848 0.65441906 0.5447396 0.36023948 0.50654876 0.5280685 0.7087091 0.67943674 0.5668895 0.5503788 0.5159402 0.39055616 0.2347307 0.62551415 0.63146806 0.64869845 0.5988728 0.5325905 0.3084308 0.16166015 0.7268418 0.7384778 0.21986014 0.24329472 0.20672481 0.805483 0.8113171 0.47506148 0.5700943 0.6263709 0.7864956 0.87148666 0.72504604 0.74846053 0.7730924 0.65630066 0.667304 0.45175767 0.40526235 0.5371001 0.56919676 0.57853043 0.5597916 0.56692034 -0.17839506 -0.14697783 0.38016266 0.44892278 0.34820807 0.23349218 0.06613894 0.21859439 0.33189228 0.35330805 0.39954498 0.46323442 0.54373884 0.5354407 0.41792652 -0.3586046 -0.28175688 0.20393628 0.28831494 0.33726317 0.40825492 0.50137645 0.2892539 0.5773092 0.3405525 -0.3262491 0.5220235 0.05407412 0.60012054 0.64483035 -0.0040723607 0.6314279 0.64662576 -0.11170625 -0.069187745 0.6514376 0.6699399 0.3632956 -0.55045825 -0.4200502 -0.16679828 0.13761494 0.6402619 0.5449524 0.46451578 -0.35999736 0.5960897 0.58201766 0.47735673 0.5825201 0.48282325 0.5958937 0.5959195 0.41643193 0.5838854 0.3037431 0.5476525 0.2168311 0.45640528 0.26547447 0.21307412 0.08328953 0.22588852 0.24737132 0.2079342 0.18985061 0.23689267 0.22719133 0.35190034 0.41348493 0.16729844 0.40276638 0.42167708 0.29116473 0.3629189 0.40615496 -0.8357165 0.2183658 -0.17828265 -0.35215437 -0.59912235 0.24076584 0.5118064 -0.50511473 0.28122228 0.2764116 0.5817771 0.32570392 0.17260271 0.2740777 0.6400286 0.6426408 0.14585061 0.3501955 0.6701486 0.6609622 0.6441921 0.6793388 0.43576747 0.4334336 0.4722837 0.50841534 0.5699975 0.57301813 0.23598088 0.0375956