# vtk DataFile Version 2.0
Really cool data
ASCII
DATASET POLYDATA
POINTS 10707 float
17.442425 23.146618 31.966057
17.44376 23.015352 32.105156
17.422955 23.594978 31.581444
17.440434 23.638466 32.457172
17.413307 24.036379 31.711544
17.391607 23.914028 32.053223
18.037119 22.24756 31.875408
18.11673 22.128637 32.356567
18.283535 21.994041 33.23926
17.729965 23.02684 31.087158
17.679998 22.933043 31.342108
17.672678 22.646576 32.40384
17.92259 22.63673 33.37723
18.044315 22.790312 33.724678
17.722748 23.614292 30.78606
17.52558 23.371159 31.246653
17.50141 23.775537 32.450684
17.671757 23.375805 33.195393
18.137527 23.436712 33.988
17.851171 24.150484 30.80847
17.619324 24.385916 31.434484
17.670252 24.28011 32.595547
17.908207 24.248056 33.317688
18.059727 24.68531 30.993008
18.050987 24.893541 31.91687
18.014769 24.902885 32.517662
18.246624 24.937134 33.008278
18.475409 34.670776 58.018368
18.441254 34.508533 58.754112
18.43412 34.623676 59.09837
18.453018 35.005047 58.41687
18.410828 37.113815 48.058823
18.288485 37.01403 48.642334
18.248156 37.01232 49.190823
18.365137 36.979588 50.270695
18.353754 37.56703 47.824074
18.139334 37.55706 48.603436
18.019623 37.589462 49.529835
18.173887 37.63084 50.40613
18.384274 37.571278 51.124817
18.360577 38.090275 47.74387
18.10978 38.35737 48.74391
17.974453 38.461647 49.50546
18.120974 38.384377 50.273724
18.365704 38.154575 51.242924
18.232029 38.815006 55.86964
18.143606 38.691376 56.549995
18.26016 38.661327 57.134163
18.188042 38.831512 48.91014
18.149902 38.920284 49.583996
18.18817 38.84781 50.22455
18.127748 39.550972 55.9271
18.029915 39.48651 56.4751
18.191793 39.354527 57.183548
18.276764 39.94214 55.947098
18.161997 39.89873 56.573406
18.24899 39.93902 56.992725
19.334805 20.116385 26.486778
19.464258 19.664995 27.467611
19.285566 20.813421 25.626806
19.339136 20.304764 26.444435
18.936842 21.206623 31.937084
18.944069 21.165972 32.275696
19.348015 21.935278 24.79874
19.247156 21.512997 25.75666
19.219929 21.857264 26.154482
19.365751 21.678036 26.831774
18.391607 22.25825 31.000515
18.343843 21.85137 32.55617
18.778257 21.686785 33.226658
19.003138 22.048643 34.021523
19.229362 22.142614 37.90026
19.140486 22.165298 38.568756
19.300316 22.14641 39.283318
19.212315 22.358393 24.890545
19.06148 22.706945 25.666561
19.223505 22.152866 26.388294
19.037785 22.567398 37.82226
18.836018 22.674213 38.448376
18.982107 22.66378 39.28953
19.18125 22.833788 39.830215
19.241108 23.374268 24.75626
19.074102 23.246397 25.476624
18.4993 23.41639 30.33346
18.46706 23.30645 34.18817
19.347214 23.85156 36.995026
18.824934 23.290255 37.83427
18.66466 23.556181 38.602863
18.789295 23.496763 39.44894
19.07271 23.733765 40.195953
19.367306 23.919527 24.891464
19.284973 23.872753 25.539688
18.427702 24.25686 30.501228
18.674786 24.36254 34.206154
18.923388 24.592499 37.781384
18.673323 24.55281 38.57442
18.616041 24.682539 39.552338
18.91673 24.632742 40.25744
18.50789 24.804209 30.995008
18.821657 25.12024 31.481087
19.014557 25.369305 32.501556
18.599157 24.95274 33.595226
19.198862 25.540628 37.06672
19.059927 25.717466 37.346886
18.75218 25.462177 39.409256
19.011295 25.261799 40.188725
19.11746 26.411074 37.720524
19.115612 26.554571 38.375225
19.179874 26.366833 39.121185
19.245388 25.910027 40.12016
19.260618 27.823952 37.84758
19.329508 27.626131 39.32349
19.240911 28.289566 37.72508
19.185047 28.252445 38.69055
19.444887 29.78822 36.877384
19.290512 29.7184 37.808228
19.212132 29.595354 38.44523
19.364826 29.337751 39.184128
19.326916 30.495653 37.692513
19.284893 30.322023 38.373516
19.375778 30.430231 38.876984
19.386154 30.792799 38.20739
19.317001 32.096676 56.392498
19.31853 32.19471 57.968494
19.290539 33.04931 54.97186
19.140116 32.890594 55.780617
19.144041 32.59521 56.58449
19.243017 32.401894 57.625256
18.91381 33.16505 58.461884
19.07294 33.189907 59.40484
19.332232 33.23461 59.848648
19.25726 33.982647 54.966843
18.900787 33.8033 55.71956
18.77337 33.638477 56.46906
18.888578 33.2623 57.614414
18.621546 33.652077 58.431408
18.75425 33.76219 59.386528
19.083979 33.709805 59.99095
19.117968 34.289764 55.072113
18.78787 34.549274 55.896034
18.762459 34.601444 56.45863
18.61151 34.602463 57.39898
18.538782 34.360058 58.42605
18.554325 34.47722 59.38047
18.845417 34.35635 59.924202
19.088154 36.186626 47.793858
18.899199 36.12739 48.916977
19.01742 36.03355 49.612392
19.072937 35.922096 50.413265
19.357908 35.739 51.84884
19.123615 35.725723 56.28227
18.773886 35.46572 57.9393
18.547024 35.281822 58.582367
18.618082 35.101517 59.41369
19.071447 35.355648 60.00201
18.979944 36.876587 46.985565
18.737339 36.82449 47.52634
18.630203 36.58716 48.300117
18.64234 36.626198 49.580925
18.600872 36.683453 50.462883
18.831 36.729607 51.58673
19.009146 36.61691 52.353695
19.416895 36.829628 53.071846
19.474491 36.156273 54.89141
19.256342 36.400795 56.38196
19.111242 36.480804 57.065414
18.843273 35.906933 58.37524
19.131989 36.20493 59.268845
19.240814 36.011395 59.984642
19.18508 37.666225 46.433495
18.855295 37.54486 46.860607
18.533947 37.475506 47.366997
18.517199 37.44418 51.42381
18.764265 37.50676 52.29901
19.414997 37.518524 53.540085
19.462982 37.584347 54.45078
18.875097 37.56279 56.107937
18.44999 38.203686 56.31462
18.899157 37.749573 57.152878
19.393557 37.626762 58.39819
18.925999 38.162273 46.97226
18.686695 38.35498 47.526043
18.850824 38.641865 52.55265
19.215614 38.172676 53.100388
18.679625 38.491043 55.58164
18.583826 38.662674 57.580208
18.964485 38.601124 58.00212
18.869366 38.87961 47.8715
18.688406 39.19095 48.88412
18.523594 39.28966 49.408154
18.586733 39.219444 50.319958
18.752523 39.33182 51.84729
18.866037 39.25947 52.832733
19.147423 39.180763 53.77941
18.971909 39.596783 54.69691
18.480087 39.642296 57.572548
18.994875 39.186874 58.07025
19.04824 40.311142 51.97127
18.98465 40.32467 52.129482
19.011904 40.383137 53.257168
18.675028 40.143623 55.699608
18.558933 40.371765 56.512512
18.71379 40.230774 57.331684
19.027979 40.17114 57.917347
19.41857 41.36887 50.939804
19.176767 41.304058 51.685772
19.284725 41.30254 52.302536
19.156263 40.776814 56.764317
18.905981 40.630325 57.081413
19.322485 42.802723 50.7401
19.237059 42.657978 51.437176
19.384684 42.19114 52.07992
19.138922 43.874336 50.757454
19.248974 43.20824 51.427483
19.298296 43.89446 52.078533
19.271284 44.481773 50.20897
19.084625 44.4262 50.7085
18.961224 44.594227 51.440834
19.064896 44.802475 51.92735
19.29552 45.06507 50.156208
19.209524 45.454777 50.641476
19.020893 45.27726 51.209835
19.161554 45.633915 52.177975
19.3689 45.698685 53.113743
19.433672 46.472347 50.81983
19.19845 46.176167 51.523163
19.294254 46.431305 52.112934
19.349007 46.41684 53.11805
19.395096 46.828533 52.935753
20.2334 14.169838 25.796015
20.153084 14.055709 26.514256
20.19495 13.964749 27.49168
20.301937 13.936465 28.460897
20.342625 14.092759 28.916302
20.077272 14.542958 25.65535
19.837593 14.661896 26.34456
19.944513 14.538727 27.478495
20.09648 14.478397 28.441967
20.289804 14.622797 29.03865
20.273659 15.573117 25.09427
19.80332 15.310077 25.88803
19.81649 15.631255 26.496786
19.876587 15.555095 27.277233
20.135695 14.995135 28.621851
20.287844 15.074818 28.92671
20.222069 16.642368 25.718597
20.054459 16.427588 26.136309
19.953236 16.356222 27.324596
20.39082 15.880057 28.30978
20.175879 17.485558 26.022932
20.115532 17.080755 26.691109
20.15818 17.718822 27.45066
19.848011 18.123377 28.4673
20.11849 17.807457 28.840897
20.07277 18.910858 25.19818
19.77638 18.596811 26.47058
19.662254 18.413551 27.708841
19.733236 18.55286 28.570707
19.959438 18.397615 29.018644
20.086433 19.661152 24.810417
19.540756 20.059597 25.718985
19.551912 19.587532 26.51434
19.55463 19.399248 27.312729
19.527702 19.025633 28.239729
20.147326 20.706053 23.988394
19.743172 20.64077 24.737026
19.511438 20.41255 25.498636
19.657965 20.303633 27.785933
19.964954 20.315573 28.203753
19.506413 20.663055 31.743126
19.614971 20.732279 32.37146
19.799128 20.982807 33.18489
19.52887 21.418968 24.781025
19.570883 21.266592 27.312832
19.58017 21.240097 30.741316
19.339966 21.50346 33.440857
20.25306 21.90775 35.17405
20.0256 22.231886 36.6236
20.030167 21.60528 38.01626
19.740227 21.73499 38.638462
19.825506 21.838186 39.39579
19.869059 22.114206 39.933926
19.863588 22.859577 23.894577
19.5209 22.414156 24.35964
19.44452 22.48385 26.466019
20.12237 22.022911 27.67125
20.029634 22.472128 35.654446
19.80305 23.044828 36.573364
19.812517 22.608034 40.220787
19.931536 23.338589 23.865726
19.4466 23.292486 24.421501
19.447771 23.099874 26.555443
19.457758 23.483322 40.39612
19.634909 23.94677 40.765705
20.095346 24.058262 24.060448
19.870907 24.306086 24.673618
19.476059 24.191072 25.380917
19.80994 24.324028 25.988058
19.098242 23.922417 30.349224
19.599277 24.62602 36.67649
19.330944 24.143768 40.571396
19.590317 24.420023 40.806164
19.974516 24.64292 25.374485
19.631878 25.120642 31.37759
19.753748 25.369806 32.22125
20.176554 25.609032 35.464825
19.72351 25.187124 40.782177
20.303219 26.665937 35.766815
19.7374 26.570759 36.431084
19.886793 27.155794 36.388767
19.589258 27.203651 37.28005
19.503756 27.590504 39.54584
19.590918 28.833357 37.01529
19.859964 28.60178 40.486866
20.162271 28.705078 41.303886
20.341362 28.847963 41.821842
19.784197 29.682438 35.7839
19.577068 29.455782 36.433727
19.67339 29.471413 39.458794
19.8698 29.48011 40.18798
20.179989 29.400454 41.179024
20.204514 30.41768 35.242836
19.922377 30.04277 35.586834
19.529837 30.247622 36.497925
19.460068 30.71173 38.583916
19.66765 30.42721 39.274426
20.32294 30.049082 41.108273
20.09131 31.261137 55.800663
20.08032 31.143587 56.498405
20.126978 31.142803 57.275814
20.004965 31.168533 35.88315
19.935213 31.304218 36.56639
19.687645 31.167128 37.514122
19.657131 31.095783 38.38361
19.885233 30.977922 39.11334
20.1353 31.927507 54.79166
19.844828 31.75536 55.47691
19.663643 31.67893 56.25815
19.82729 31.48592 57.215122
19.861876 31.779276 58.346992
[...]
POINT_DATA 10707
SCALARS features_00 float 1
LOOKUP_TABLE default
0.65090543 0.64055747 0.687887 0.66205513 0.69858277 0.68421066 0.58921003 0.5737378 0.5481688 0.6764638 0.6561342 0.6178014 0.61943555 0.62838376 0.73004997 0.68949366 0.6682905 0.64888906 0.6515111 0.75043976 0.722792 0.6817417 0.6641321 0.73678017 0.6962507 0.68579996 0.6660284 0.36135012 0.44819075 0.4695076 0.38350773 0.6212611 0.5485852 0.4983694 0.3911769 0.6889599 0.6204514 0.54655427 0.44750914 0.33205888 0.719344 0.64341706 0.5570353 0.46088016 0.3114281 0.48544884 0.5504998 0.56909 0.59728086 0.4946899 0.4115625 0.6034313 0.6394774 0.6436484 0.6144802 0.6502453 0.6535414 0.29521888 0.3049874 0.3495702 0.30693138 0.49947983 0.48020688 0.46815062 0.40007418 0.41077584 0.36594552 0.61336815 0.5392625 0.4760764 0.42800373 0.57773685 0.65809804 0.6993294 0.50927836 0.5107233 0.4189955 0.56640023 0.63770175 0.6826123 0.6791265 0.5679109 0.5494449 0.75711024 0.6256345 0.4035774 0.5397799 0.62320673 0.65488505 0.63361335 0.5628041 0.5494822 0.7511426 0.6098326 0.40109035 0.5314741 0.5876639 0.5961714 0.686797 0.57756186 0.50290847 0.6273725 0.22774455 0.24725237 0.47977167 0.5620452 0.22987147 0.2669137 0.3176201 0.46000433 0.21324089 0.21857566 0.23740701 0.26966822 0.3707263 0.37894243 0.36377147 0.3034994 0.4541938 0.42272836 0.40687048 0.45229107 0.43156636 0.42822266 0.39596313 0.40728652 0.40716237 0.4209996 0.46880305 0.50729716 0.50133 0.31561714 0.3490684 0.3608423 0.41037259 0.4586023 0.5193571 0.5280979 0.27621233 0.25160784 0.25406033 0.3050511 0.42613697 0.4994619 0.53379405 0.5183586 0.3755048 0.29711366 0.24305889 0.17688665 0.09158975 0.28519922 0.38150218 0.46862084 0.4867129 0.6723331 0.6450217 0.5236809 0.3935827 0.33586556 0.25023732 0.18101268 0.07766609 -0.07101036 -0.0037965812 0.06294209 0.297378 0.34278077 0.41166776 0.69060147 0.7231164 0.7161714 0.28360933 0.17992625 0.017645478 -0.07271658 0.09928195 0.3800078 0.3009432 0.16558321 0.7301327 0.7340752 0.14802359 0.08883389 0.29943514 0.5464411 0.48281056 0.69107294 0.5287117 0.44780082 0.3140267 0.15811042 0.1389086 0.074238494 0.25317702 0.6349958 0.5608503 0.12494814 0.13744435 0.17380914 0.5686761 0.6259424 0.6277633 0.60069036 0.11072964 0.14366437 0.16575798 0.5936425 0.6077301 0.2919761 0.28384784 0.22703886 0.3954611 0.34206972 0.37307122 0.43776482 0.43368506 0.4369325 0.43995437 0.47952396 0.5014231 0.4853118 0.4907453 0.47205567 0.53460854 0.5185942 0.52877706 0.5105574 0.52019227 0.5235206 0.57261443 0.67031497 0.78583395 0.82320094 0.50930095 0.55186296 0.6501039 0.7457375 0.8063035 0.40453917 0.47989643 0.4478621 0.4934796 0.7178459 0.7576643 0.2727528 0.306143 0.28703114 0.53271663 0.12940773 0.17651196 0.17847438 0.34075642 0.36577785 0.18875825 0.16643302 0.2507223 0.3898203 0.47051722 0.2885006 0.2868418 0.25164008 0.27879834 0.34692144 0.42431262 0.35846955 0.3174529 0.34323204 0.38158303 0.5077345 0.44771403 0.38191867 0.41712567 0.34439227 0.6226398 0.3960154 0.19882269 0.38162482 0.53315854 0.6479421 0.7063893 0.71591043 0.530244 0.5259642 0.4299276 0.3337783 0.1985173 0.41946504 0.68982315 0.52509046 0.56353235 0.45649266 0.6422045 0.61413074 0.49557912 0.5188355 0.54497683 0.4884765 0.67448276 0.26790085 0.6161227 0.60206115 0.49443078 0.37138546 0.28843352 0.007538544 0.5812918 -0.0064843353 0.10627385 0.074527934 0.14995253 0.19976129 0.23391107 0.22581244 0.26491818 0.2625303 0.26765192 0.29012945 0.2926032 0.27308357 0.28354764 0.27659714 0.2997803 0.42178488 0.43467617 0.38414997 0.29089427 0.4926199 0.48265302 0.4646916 0.45796365 0.4995895 0.47963327 0.44704834 0.41503513 0.45524117 0.4698251 0.45949477 0.4515515 0.42851442 0.57045615 0.5829629 0.5987624 0.48971465 0.4690569 0.4419963 0.35687158 0.405514 0.42923564 0.4594596 0.4461546 0.66385084 0.67406297 0.6597048 0.63328207 0.2886447 0.48806685 0.45461452 0.6911304 0.67146534 0.62045723 0.10274255 0.094649255 0.071394205 0.47026134 0.54309815 0.42214087 0.35863853 0.20220384 0.18607414 0.20113249 0.079262614 0.45880687 0.4888391 0.60048914 0.6507614 -0.1159269 0.34685272 0.6423675 0.67810476 -0.08657896 0.105294116 0.613639 0.6584595 0.6369545 0.6544671 0.47753182 0.5030618 0.16727954 0.047170497 0.5408805 0.45132953 0.090459876 0.18153664 0.15892653 0.52169836 0.5525366 0.54678655 0.49299988 0.21198097 0.2753502 0.2525199 0.20843695 0.36574593 0.26040322 0.30765483 0.43484008 0.35784104 0.4964828 0.4516891 0.4012854 0.53301334 0.53556573 0.53531694 0.48971277 0.43437985 0.5380399 0.5460876 0.54488665 0.53782237 0.49900204 0.5317083 0.50249344 0.4431386 0.47091037 0.5082737 0.52079344 0.4912123 0.40542018 0.506838 0.52337635 0.5090494 0.45562586 0.45737344 0.43935055 0.37554145 0.41092235 0.3853265 0.59697133 0.683024 0.8008281 0.4659677 0.50303966 0.5696293 0.6611937 0.7997081 0.8585845 0.3346639 0.42896116 0.8411207 0.8420499 0.23367476 0.38340628 0.6395413 0.803812 0.146227 0.1508046 0.22649483 0.08546395 0.611442 0.625602 0.31623155 0.4082686 0.5985389 0.5653458 0.4122411 0.327393 0.24570133 0.5742042 0.48125768 0.21900736 0.28758702 0.47252902 0.6061909 0.6826464 0.7034302 0.46885395 0.3285691 0.6799661 0.4327207 0.4804371 0.5995186 0.39804053 0.40953925 0.33520454 0.20487468 -0.094401285 0.57011974 0.46054757 0.36798936 -0.020594 -0.07418942 -0.08099807 0.06545488 0.5660533 0.56540513 -0.034512028 -0.10955237 -0.24232619 -0.25844374 -0.17782877 0.64314413 0.6248548 0.54181105 0.53545624 0.2474458 0.120545 -0.0057557747 -0.15495661 -0.15403233 0.1956552 0.34603155 0.23185062 0.13066904 0.0702519 -0.0922072 -0.05350058 0.2415103 0.19244239 0.38366243 0.36797917 0.3018459 0.113722265 -0.013263453 0.252166 0.19176985 0.35851765 0.35839945 0.3270195 0.19570334 0.097761855 -0.01372537 0.27649567 0.2345435 0.47974515 0.49338007 0.47327211 0.44802836 0.40086195 0.36383057 0.34208182 0.2262006 0.2532075 0.41873515 0.35392636 0.26224682 0.4546871 0.39258236 0.3378945 0.41997367 0.5484863 0.45922852 0.45905367 0.42436308 0.42255378 0.30670762 0.2860002 0.26839608 0.29617038 0.37685537 0.3298521 0.562647 0.60593677 0.57363224 0.50792813 0.43679625 0.29576743 0.30458623 0.2656451 0.18299924 0.05068219 0.36069375 0.65302926 0.70119554 0.7034756 0.65096545 0.5957886 0.50683576 0.21325488 0.29332712 0.27992812 0.15706278 0.09773395 0.06388672 0.032370165 0.3026203 0.7002697 0.66307527 0.6068393 0.33639956 0.1989845 0.5310254 0.3415948 0.371338 0.5481313 0.39185002 0.40067166 0.4021057 0.58319557 0.20367631 0.47519884 0.45560074 0.43374884 0.5028638 0.52781343 0.056444675 0.4059835 0.51807046 0.5290788 0.48552114 0.0400146 0.40510088 0.27037206 0.4534269 0.5291576 0.52563655 0.47269386 0.27654234 0.0009940192 0.1322368 0.44736993 0.43877006 0.43294203 0.39675024 0.49794483 0.14555912 0.060150497 0.2049905 0.2789082 0.22441341 0.34744567 0.24076104 0.4579848 0.24210186 0.45835966 0.37698486 0.49004504 0.5058315 0.27300513 0.2504923 0.2666467 0.3339749 0.4870678 0.4921685 0.4723099 0.2910911 0.36292177 0.42795828 0.3949753 0.26745424 0.44621545 0.4171803 0.24462867 0.43013552 0.3220791 0.3958503 0.45681095 0.47712368 0.3024211 0.38938195 0.3574903 0.36142766 0.42725864 0.48363155 0.4781497 0.495407 0.28570223 0.3623371 0.36355722 0.33972263 0.3844386 0.45092425 0.5570409 0.70781 0.48720697 0.51732254 0.49615806 0.45757967 0.32031274 0.36211687 0.3497341 0.34088948 0.40539837 0.52254003 0.62865424 0.7770754 0.8193184 0.5463035 0.5441193 0.5591248 0.6167618 0.72100806 0.8292469 0.8597658 0.65931547 0.7117634 0.7028634 0.75578624 0.7840228 0.74757993 0.80674005 0.78800035 0.590953 0.69444025 0.77804315 0.83818245 0.37887192 0.46263045 0.8348099 0.6708174 0.6080218 0.5423476 0.31202397 0.7826522 0.8002426 0.6780479 0.58239913 0.41184634 0.19834733 0.7295032 0.79088265 0.6446701 0.5424301 0.42971578 0.18312347 0.49597794 0.3595837 0.2787477 0.39527312 0.3631521 0.32440594 0.40657783 0.29837933 0.10633739 0.4273411 0.41121393 0.32031316 0.25245506 0.21524443 0.19209489 0.24218678 0.35380283 0.50897765 0.32565224 -0.11394431 0.25295934 0.36543477 0.5300313 0.6183528 0.65134287 0.60457253 0.6012986 0.38663068 -0.104817055 0.51353896 0.37813368 0.542157 0.48191187 0.51314723 0.6139496 0.61066294 -0.11063118 0.54140866 0.6699772 0.6731688 0.6566775 0.5433226 0.15003222 0.09306401 0.23162588 0.41290033 0.70220345 0.6840693 0.64321446 0.1745394 0.347719 0.36295304 0.16950513 0.42892987 0.33415464 0.17987561 0.14288524 0.11364624 0.42407262 0.4180157 0.4089461 0.3879555 0.31153116 0.34447435 0.3416767 0.14844242 0.09358856 0.26657236 0.25601375 0.3776974 0.23288606 0.1722096 0.45077872 0.4125678 0.33858454 0.28923887 0.38347226 0.30199984 0.06662445 0.2950473 0.31351915 0.30033028 0.25849128 0.15863685 -0.15212484 0.250949 0.5216639 0.5755545 0.420915 0.20284969 0.2888108 -0.13550909 0.18268642 0.6371069 0.6874299 0.5661853 0.50230896 0.45064902 0.1450685 0.12003828 0.650957 0.6702932 0.627617 0.56906176 0.16033843 0.111470744 0.1841659 0.31490168 0.3149436 0.28453103 0.3603761 0.40683395 0.32218283 0.41631812 0.42600566 0.29300463 0.44905472 0.44271648 -0.18288815 -0.056649625 0.44337243 0.43138587 0.39646053 0.19071387 0.013641922 0.2467599 0.20635653 0.46728525 0.43952978 0.45883185 0.4220028 0.32114577 0.0364507 0.24651594 0.23447004 0.24898432 0.33695266 0.41571885 0.4700454 0.40505 0.50546265 0.5022089 0.40814564 0.30041838 0.1402906 0.5072113 0.5040342 0.43197536 0.104202315 0.13191512 0.3573192 0.05221127 0.32187253 0.17988248 0.21559423 0.32298338 0.14624026 0.10475568 0.18616305 0.3052188 0.2201239 0.38470328 0.36977017 0.23753087 0.28495994 -0.039243743 0.03042537 0.22434106 0.21713148 0.2722235 0.33805275 0.5019647 0.57237285 0.6808048 0.3951556 0.4225579 0.7106544 0.77196497 0.43237996 0.32711866 0.33686686 0.8437341 0.8588668 0.38212502 0.4448734 0.5348637 0.3177778 0.32354292 0.44166854 0.564721 0.73736864 0.88897127 0.89634275 0.8847419 0.5151823 0.55734515 0.63987124 0.8016553 0.8908731 0.9318033 0.61348987 0.7130493 0.71981895 0.6807871 0.76833147 0.8056458 0.76624393 0.62183523 0.6929891 0.70268947 0.70987785 0.68438053 0.61892426 0.51230127 0.7216016 0.7730391 0.72578645 0.6624015 0.32677823 0.7414198 0.75262487 0.7121155 0.61013246 0.709615 0.664377 0.5805482 0.03677223 0.12742883 0.4339245 0.37951207 0.08385482 0.3307156 0.020864096 0.17148858 0.17350505 0.30285293 -0.1164933 0.102210686 0.09249446 0.41297382 0.5429624 0.29010156 0.46406052 0.5271907 0.3516246 0.41497767 0.304035 0.34457523 0.54025924 0.12986122 0.5421704 0.6864499 0.7489722 0.6303588 0.62480474 0.6597315 0.68804336 0.6845848 0.7048197 0.47439924 0.6139382 0.63850904 0.7265905 0.73550606 0.6803107 0.5668987 0.37902406 0.5719206 0.30146277 0.40870282 0.40217298 0.30201843 0.273831 0.30230382 0.26524183 0.2755802 0.30419946 0.18886387 0.31091017 0.29250115 0.27098387 0.30012146 0.046894632 -0.055645972 0.31131357 0.27737662 0.20004882 0.10481259 0.11967866 0.0004500486 -0.03811799 0.2620145 0.091060765 0.3735711 0.1721043 0.17743635 0.14718188 0.20590109 0.23158465 0.23490293 0.06814957 0.017383583 0.21876329 -0.018849313 -0.07814119 -0.11282552 0.07537936 0.519289 0.30776605 0.2632221 0.17534998 0.093473196 -0.036937013 0.047230437 0.57438266 0.5742001 0.50818 0.46330005 0.4088415 0.27917978 0.15862086 0.0078554 0.004073508 0.1259262 0.20071732 0.5100937 0.5277437 0.5598955 0.53153455 0.520787 0.29253426 0.28031412 0.1239051 0.2696616 0.23485632 0.34421644 0.33016962 0.3808365 0.37895745 0.37704343 0.32176715 0.4353534 0.36858112 -0.24522561 0.43178505 0.22009116 -0.13505022 0.39995965 0.39735794 0.30395544 0.20339715 0.08468713 -0.08384298 0.34847715 0.4303956 -0.2315097 -0.0555489 0.1241286 0.07324648 0.27525827 0.3581182 0.4419995 0.49379545 -0.0364303 0.13856359 0.22248182 0.37950343 0.4184604 0.4316946 0.4696504 0.074398816 0.2301454 0.30609465 0.5017926 0.41411272 0.41774952 0.30817795 0.17428783 0.36866623 0.48166385 0.30848908 0.26742077 0.024242703 0.10229224 0.16623706 0.025595114 0.20342755 0.14163774 0.074143276 0.21000156 0.077249445 0.12195878 0.059351582 -0.22787076 0.15576605 0.17768675 -0.15802965 0.3517603 0.41540855 0.16856383 0.5723839 0.64616454 0.26645237 0.7468701 0.78417224 0.33450064 0.81298685 0.8425104 0.25697345 0.25345293 0.3162912 0.919581 0.8998807 0.32028022 0.43298995 0.48387685 0.53118736 0.6717949 0.7771871 0.9143274 0.94187653 0.9205041 0.4997669 0.5292924 0.6917525 0.79321957 0.8745891 0.51652443 0.69748676 0.76778185 0.70835674 0.55441654 0.61098105 0.61649793 0.67860633 0.78602636 0.7289105 0.5948034 0.47548813 0.20429851 0.2633128 0.53881854 0.63015306 0.7797934 0.78863317 0.58451545 0.7637024 0.7514616 0.72202325 0.7083113 0.622817 0.5365639 0.4151027 0.40910208 0.20918666 -0.235284 0.018741176 -0.08382842 -0.0943477 0.07384271 -0.122341484 -0.15098697 -0.100014925 0.35902482 0.18453997 0.110894136 0.25277317 0.66490114 0.710032 0.5085968 0.50339663 0.61033285 0.7474454 0.7720307 0.595469 0.6224454 0.73805475 0.70133436 0.6647301 0.65744287 0.68094176 0.70407414 0.6828798 0.59395206 0.59451807 0.6215074 0.49112263 0.4894436 0.466218 0.16625062 0.37449038 0.48645374 0.47352785 0.4342142 0.31725147 0.2504432 0.29709658 0.28666556 0.2012094 0.27550542 0.084377825 0.19223508 0.24933206 0.16536058 0.33429897 0.03887084 -0.009740591 0.1509171 -0.010827944 -0.0057152063 0.7544685 0.7954206 0.43947572 0.43826947 0.066863954 -0.02408886 0.0045500994 0.089657396 0.14667335 0.6582071 0.7440075 0.7594297 0.5030312 0.30848753 0.1978491 0.23289967 -0.14913708 0.5614792 0.62007666 0.67508006 0.69316053 0.43887055 0.38703543 0.35461497 0.45514858 0.45258933 0.3991581 0.22652128 0.20089126 0.5228468 0.60549843 0.42449474 0.38906336 0.45274052 0.49167007 0.21488483 0.27714014 0.26688197 0.48098412 0.30807883 0.33405927 0.3821108 0.3414082 0.3717954 0.3396055 0.37657452 0.35514924 0.269784 -0.2569732 0.36701137 0.19100788 0.35885224 -0.10324337 0.18366894 0.371063 0.40807548 -0.29001188 -0.20980133 -0.35373116 0.27801132 0.36692917 0.39746436 -0.0931897 -0.12181365 0.057017006 0.46779287 0.5210313 0.35744336 -0.10476346 0.048884675 0.1343295 0.22916383 0.48365563 0.54554725 0.58437794 0.354074 0.30038345 0.3361883 0.4777722 0.59295124 0.6044095 0.31673846 0.28759956 -0.13230208 -0.09029148 -0.062751055 -0.01439026 0.38944906 0.49473625 0.6006105 -0.09255475 -0.05134768 0.057769295 0.026678257 0.0679628 0.04225978 0.16768089 0.15286887 -0.036599584 -0.010822287 0.13077497 -0.002745013 -0.2542967 0.07922296 0.095160484 0.16083252 -0.23304288 0.24837655 0.4456188 0.5702338 0.6922064 0.73813915 0.8303071 0.103203304 0.1928227 0.41959676 0.8846879 0.8759058 0.24250986 0.27039105 0.56430626 0.8929875 0.9264158 0.41525534 0.64653885 0.68294656 0.7386477 0.8776201 0.47146702 0.50737613 0.6203408 0.6048018 0.7848631 0.7018281 0.47885275 0.2549794 0.11541287 0.28936833 0.31634554 0.78235793 0.79394436 0.7567663 -0.05660306 0.71629053 0.65182346 0.5750004 0.50982386 -0.38558063 0.26787907 -0.2854388 0.15486705 -0.2619106 -0.10669036 -0.1093833 -0.09479037 -0.16845356 -0.08940013 -0.009458654 0.1818659 -0.082791165 0.07914111 0.087047204 0.023345519 -0.15264633 0.029254548 0.6546736 0.6858052 0.3664221 0.07619637 0.42255014 0.6960908 0.7354108 0.45762855 0.71471417 0.67992663 0.56583 0.54139364 0.6668529 0.5634922 0.42870384 0.36590785 0.5723098 0.33386457 0.40594107 0.45273712 0.41084713 -0.007031411 0.5472231 0.3868432 0.058270797 0.12016654 0.217222 0.2333835 0.23845616 0.011965162 0.16911384 0.05871433 0.6452083 0.7048316 0.7543342 0.30165938 0.0096296 -0.29683864 -0.04238221 -0.08043002 0.6485475 0.7494575 0.80394894 0.4684334 0.1207595 0.01798271 0.038346626 0.1424026 -0.24584962 -0.01854115 0.37868544 0.7950292 0.8435768 0.47558707 0.4277498 0.24635932 0.16222247 0.16636 -0.21028239 -0.03555204 0.15037528 0.7102958 0.7565745 0.37684643 0.3492406 0.31588084 0.3354549 0.39602786 0.39276826 0.11776365 0.16851231 0.59602416 0.6664493 0.2021949 0.36973944 0.50905013 0.59253484 0.24613391 0.24463785 0.41211462 0.2673732 0.33431345 0.118533485 0.35084403 0.17200857 0.33523905 0.06407117 0.18819512 0.22829884 -0.42990115 -0.33323509 0.42147046 0.22672413 -0.20512064 0.540779 0.4902343 0.15116009 0.2529009 -0.4018705 -0.14778456 -0.10147086 0.5634917 0.5430218 0.15867099 0.17177455 -0.2935471 -0.11627053 0.21394965 0.57944006 0.5307768 0.024353743 0.14936472 0.13382056 -0.24957056 -0.21532041 -0.22389172 -0.19309694 -0.205143 0.25302622 0.5492935 0.5672951 0.031720378 -0.053532198 -0.12994504 -0.179795 -0.13850474 -0.035595257 -0.09385277 -0.13954097 0.07761912 -0.12435178 0.12750542 -0.07622542 -0.051402435 0.07510481 -0.033071592 0.06295927 0.11573773 -0.4285768 0.2873988 0.37138495 0.059560906 -0.08587667 0.4536827 0.11723487 0.101792835 0.5529539 0.7386162 0.14760421 0.10959613 -0.096982695 0.2402749 0.6182363 0.74485767 0.82149076 0.14478147 0.111171454 -0.11345702 0.5837208 0.61021894 0.66249514 0.76693237 0.8759586 0.28393745 0.12239914 0.22273242 0.16511205 0.6513798 0.41026098 0.19795252 0.2938593 0.3802564 0.16159661 0.41760048 0.44766656 0.43532282 0.4705819 0.43823826 0.76886415 0.29002514 0.24384286 0.11841141 0.356296 0.77630824 0.6629088 0.08404235 0.2591588 0.7459642 0.7161257 -0.042549253 0.61538607 0.46153647 -0.23587126 0.49698776 0.39538205 -0.36742646 0.33359507 -0.30821866 0.37294763 0.39058805 -0.07418232 0.39889738 0.40766227 0.34612498 -0.047610886 -0.06234949 0.33976048 0.19714686 0.2501117 0.17892358 0.1845147 -0.18885656 -0.22270255 -0.045845088 0.18141031 -0.24268088 -0.30216944 0.14323953 -0.25530675 -0.013993911 0.09350227 0.14505723 0.06743981 0.086520225 0.102998406 0.5453195 0.06055008 0.3585087 0.5238358 0.60782015 0.661261 0.5957918 0.6213507 0.3441853 0.50012004 0.6543038 0.42635608 0.5525598 0.62251776 0.62181824 0.35280854 0.53955317 0.59069043 0.62055755 0.26146376 0.31186026 0.34885323 0.31217733 0.42415082 0.14093642 -0.031985797 0.09499218 0.12297014 0.27237526 0.3524983 0.3779289 0.35543472 0.24279773 0.06535174 -0.57003516 0.11553844 0.22023131 0.16922413 0.09902166 0.16317612 -0.039704204 0.1576769 0.23024641 0.08800428 -0.063494675 -0.121861376 -0.20358104 -0.10509274 -0.40522546 0.09744903 0.16758378 0.21032 0.2266669 0.6049515 0.6767594 0.7340156 0.33173162 0.032851953 -0.006924856 0.016314613 0.01538554 0.12772 0.16348836 0.27888086 0.8035144 0.86449575 0.42361498 0.218416 0.16486508 0.13443233 0.90615404 0.4201461 0.39375222 0.26794225 0.19304138 0.15943828 0.8775089 0.3603852 0.31796262 0.29030406 0.30625835 0.3339485 0.101341166 0.7731745 0.103441 0.48461342 0.63509774 0.1465064 0.45886868 0.18852526 0.05166081 0.18059398 0.2734639 0.020026248 0.11058324 0.08775461 0.023726627 0.06222166 -0.8809606 -0.32248598 0.13478978 0.120894626 0.1168754 -0.2161581 0.42963976 0.124359265 0.13985723 -0.2055639 -0.21215923 0.41571182 0.47615412 0.13398315 0.13768409 -0.27466592 -0.2133528 -0.2162582 0.46976763 0.51538193 0.21572773 0.12581524 0.39310378 0.48148683 0.35559195 0.25450635 0.106247135 -0.0514614 -0.1467183 0.16688393 0.29417518 0.5335461 0.49769226 0.30799183 0.19059044 0.10331595 -0.04286708 -0.07427254 0.632861 0.5396795 0.36163762 0.059779048 -0.017393569 -0.08640934 -0.2629973 0.025940143 -0.13165012 -0.009588517 0.6394511 0.5872084 0.49117774 0.23554762 0.11094475 -0.03397336 0.019114206 -0.1426712 0.10116813 0.541076 0.19724941 0.22713515 0.31008992 -0.11174226 -0.20204547 0.21183167 -0.00968238 0.2527728 0.46065348 0.1925069 0.18708786 0.14730223 -0.22359636 -0.3321311 0.42063946 0.5186213 0.53367335 0.34153122 0.2928387 0.21783742 -0.157927 0.5796667 0.43564984 0.36933878 -0.1284672 0.4676224 0.45681813 0.008416057 0.51829237 0.52561843 0.50353765 0.43161553 0.12832925 -0.07810323 0.53288925 0.53773093 0.529098 0.43089873 0.43983996 0.40252623 0.3554724 0.38446411 0.3979218 0.25949365 0.36317873 0.28651625 0.45846552 0.3840189 0.2575673 0.24176992 0.461102 0.395597 0.6053355 0.12345599 0.41196135 0.4621002 0.5158034 0.4615678 0.6360222 0.32114515 0.39734352 0.44383752 0.46373242 0.34036124 -0.23810336 0.18897244 0.17311114 0.28128296 0.58568776 0.6096376 -0.