# vtk DataFile Version 2.0
Really cool data
ASCII
DATASET POLYDATA
POINTS 10985 float
24.40779 32.11374 5.164811
24.352879 32.126545 6.1084247
24.425085 32.410027 4.953592
24.285667 32.542824 5.5389223
24.326275 32.57935 6.404403
24.394718 32.618103 6.7748947
24.396845 33.07667 4.809917
24.292831 33.347225 5.515214
24.326939 33.350563 6.266016
25.421602 30.804483 -1.4789355
25.398567 30.960436 -0.9058472
25.419638 31.34511 -1.4027202
25.426811 31.180643 -0.92492145
25.043724 31.88378 3.8676643
24.810158 31.760904 4.686675
24.64895 31.824417 5.5031743
24.530685 32.056744 6.395866
24.787407 32.11429 6.880861
24.823751 32.222298 3.94138
24.544985 32.572754 4.4543996
24.468071 32.339386 6.6852183
24.743979 32.626553 7.060183
25.04406 33.260147 3.649946
24.58042 33.503036 4.6544228
24.488354 33.744705 5.3848596
24.526854 33.616817 6.613739
24.61685 33.35312 6.933335
25.186409 34.38582 3.6930416
24.91239 34.297844 4.714665
24.605873 34.187225 5.6555295
24.82305 34.122677 6.431079
25.044292 34.112335 6.861002
25.196539 35.080658 3.804714
25.125254 35.24459 4.2309394
25.161465 35.14021 5.402262
25.01441 34.827465 6.0305843
25.338604 38.46883 8.385225
25.204514 38.889072 9.255401
25.161789 39.016026 10.882824
25.317564 39.00047 11.653154
25.367384 39.23029 12.47237
24.976223 39.623066 9.643909
24.776146 39.904995 10.459701
24.838432 39.699486 11.070706
25.100227 39.654747 12.427426
25.176891 39.85428 12.901594
24.909395 40.268124 9.855247
24.79498 40.384007 10.554043
24.78132 40.478798 11.584387
24.814905 40.625076 12.37435
25.102257 40.546 12.997701
25.171991 41.148495 9.985976
25.139786 41.324657 10.697673
24.93121 41.25332 11.621037
24.987505 41.244774 12.398828
25.1666 41.170277 12.9511595
25.272871 41.70573 11.6390915
25.267197 41.72067 12.383263
26.30737 28.734589 5.6158104
26.222252 28.78696 6.528619
26.307892 28.901114 7.066249
26.033106 30.130447 -1.9978687
25.779808 30.165682 -1.5078437
26.054693 30.016628 -0.7901944
26.028412 29.415335 5.701951
26.016634 29.392883 6.4077315
26.27024 29.449265 7.1867027
25.845327 30.659618 -2.1778877
25.578043 30.472332 -1.7312889
25.655334 30.49282 -0.7476486
25.455402 31.151976 4.903156
26.151611 30.136734 6.695262
26.28283 30.340168 7.044769
25.779264 31.29059 -2.1358862
25.534506 31.521997 -1.5967491
25.634197 31.32966 -0.54486144
25.361517 32.10131 3.507005
25.224056 31.935654 7.050273
25.916311 31.840384 -2.0492735
25.767551 31.98483 -1.3551743
25.91659 32.11901 -0.41024762
26.106474 32.077194 -0.028134286
25.39667 32.690125 7.392821
26.278818 32.75899 -0.60777044
25.512926 33.536762 7.331459
25.742868 34.248734 3.109981
25.46252 34.359314 7.045237
25.750593 35.429363 3.0905306
25.952515 36.10806 2.9713843
25.626413 36.089596 3.6874638
25.58221 36.254807 4.566504
25.650492 36.42876 5.0959306
25.774 37.270805 8.202845
26.104654 37.624084 4.090212
26.020449 37.673912 4.70766
25.885334 37.362347 5.451946
25.732054 37.56503 7.457511
25.603443 37.7011 8.4868765
26.16672 37.934086 10.057568
26.114296 38.24203 11.38329
26.017517 38.389614 11.948206
26.302832 37.94197 3.7827084
26.067856 38.090755 4.6915755
25.722078 38.69848 7.0109115
25.57662 38.470207 7.5975814
25.499481 38.344856 9.881679
25.49528 38.637688 10.3962345
25.717281 38.57313 11.644559
25.66394 38.95352 12.504617
25.916086 39.10909 13.048054
25.955202 39.32207 6.1142654
25.686848 39.61073 13.2394285
26.038525 39.90825 13.611224
26.482542 40.62352 3.937133
26.370918 40.113968 4.5177546
26.411982 40.161526 5.469946
25.532616 40.642704 13.3828745
25.970448 40.751102 13.693297
25.914774 41.14438 9.0650015
25.5903 41.49348 9.802694
25.515583 41.65002 10.212486
25.668884 41.410988 13.290129
26.011444 41.04659 13.649406
25.876541 41.82559 9.878872
25.715445 41.888115 10.56603
25.761353 42.14489 11.284716
25.780678 42.1859 12.546715
26.09007 42.30744 13.029604
26.272894 42.70386 12.380821
26.887177 28.061026 5.730719
26.821516 28.062246 6.4499683
26.836931 28.169827 6.9819818
26.869019 28.59399 4.9158325
26.459023 28.44716 6.576054
26.691729 28.614319 7.37433
26.981573 28.895266 7.838721
26.50291 30.038572 -2.1172907
26.389574 29.761934 -1.3743842
27.047949 29.638908 -0.86145145
26.575148 30.078287 -0.023635268
27.35849 29.849188 3.8286424
26.750874 29.530134 4.563806
26.485403 29.705088 7.519582
26.868118 29.511467 7.8392954
26.6415 30.726927 -2.6375277
26.319256 30.76995 -2.5302744
26.771315 30.375 0.5622716
26.638931 31.409538 -2.7014086
26.29914 31.49683 -2.5497634
26.493687 31.814402 3.5810454
27.049822 32.372677 -2.703854
26.504314 32.174473 -2.2927847
26.12183 32.515255 3.0021727
27.066948 32.993885 -2.0225842
26.500128 32.748486 -1.4987527
26.944199 33.13392 -0.34126
26.81655 32.85925 0.2507194
26.546345 33.594215 2.7671566
26.539227 33.500656 7.311957
26.60476 35.731415 2.2504594
26.985155 36.84423 1.7763577
26.66411 36.881653 2.318216
26.515757 36.45016 7.1641088
26.672625 37.331905 9.881601
27.064285 37.18467 1.8827661
26.735935 37.10832 2.4145846
26.44448 37.777412 3.8602524
26.555994 37.723312 10.383509
26.614784 37.93729 11.1148615
26.428171 38.344444 12.149018
27.042585 37.86545 2.746383
26.886412 38.06874 3.291436
26.379263 38.58865 12.620097
26.50693 38.95425 13.19609
26.735783 39.493668 3.5661016
26.679213 39.35087 4.1833572
26.382164 39.383484 13.538239
26.594175 39.84405 13.783365
26.92049 40.31367 2.9826865
26.698706 40.531807 3.5146692
26.573574 40.73327 4.6093483
26.521254 40.470406 5.4736066
26.427689 40.3341 7.301174
26.610958 40.515526 13.906635
27.070456 41.14625 2.9462214
26.858923 41.19348 3.6274774
26.970379 41.402515 4.6595206
27.021032 41.30678 5.4789367
26.886122 41.031757 6.3303943
26.751633 40.82837 7.041102
26.630095 41.183025 8.715335
26.396114 41.7426 13.565894
26.70505 41.377647 13.959129
27.298222 41.79601 3.6775825
27.158249 41.752403 4.0870724
26.53568 42.016365 9.767689
26.584803 42.381 10.597106
26.349178 42.484097 11.396
26.622828 42.403145 13.5175495
26.95317 42.27692 13.755324
26.826267 42.743805 11.510404
26.805567 43.048256 12.60802
26.902187 42.92516 13.232596
28.261599 25.769846 1.9631922
28.380713 25.442947 2.0834866
27.87747 27.911526 4.941585
27.472504 27.756931 5.5294776
27.508226 27.76959 6.4097915
27.472368 28.015621 7.2837358
27.494812 28.709063 7.9217553
27.315084 29.90073 -1.9407431
28.017546 29.609543 -1.7485042
27.34371 29.917799 0.52164686
27.622883 29.42309 8.066057
27.968912 30.84284 -2.9745994
27.636183 30.324202 7.8429894
27.574848 31.538755 -3.10106
27.83558 31.306318 2.4998705
27.396719 31.048143 7.319631
27.84166 31.058483 7.6311707
27.751476 32.45596 -3.0640743
28.086124 32.93248 -2.9676666
27.739502 33.06283 -2.599431
27.500134 33.50556 -1.5052413
27.658958 33.63938 -0.08764677
27.210934 33.940994 2.4361775
28.336641 33.979347 8.675589
27.948559 34.18671 -1.2531834
28.24709 34.77713 1.009341
28.221413 34.65712 -0.85410714
27.598186 35.151096 7.559994
27.97647 35.661392 8.692659
27.489784 36.224854 1.2749904
27.33592 36.214317 1.4292014
27.584465 36.683033 9.285113
27.445648 37.249283 9.904704
27.764648 37.315952 1.3425124
27.640203 37.34573 1.4783735
27.618746 38.072426 12.04289
27.743906 38.138653 1.8666656
27.101498 38.98335 13.286463
27.864082 39.50036 2.4523878
27.133745 39.326565 13.550814
27.67134 39.837784 13.878573
27.954117 40.829742 1.8210475
27.72796 40.573532 14.17859
28.079823 41.377056 1.6840527
27.591967 41.595192 2.419822
27.38229 41.606636 6.133397
27.916412 41.45634 7.084979
27.538086 41.47098 14.134651
28.105616 42.022636 1.9565266
27.946787 42.189346 2.5911932
27.838358 42.289967 3.5116084
27.965742 42.301243 4.4280725
27.826435 42.10184 5.4058437
27.993507 41.994587 6.2410574
27.475134 42.160892 9.742383
27.732616 42.455708 10.373324
27.444057 42.25636 13.902287
28.156925 42.598804 2.9645414
27.41836 43.090195 11.828936
27.578598 43.280636 12.521134
27.517431 43.1245 13.19729
27.176462 42.737873 13.622052
29.491282 19.76054 13.85479
29.130127 21.131151 -0.2835498
29.132961 21.075935 0.39569443
29.144312 21.182453 1.1301141
29.482367 20.037413 13.944541
29.135899 21.616175 -0.87801576
28.876764 21.521814 -0.37061292
28.780256 21.607302 0.37505627
28.872597 21.678917 1.4548799
29.066296 21.787357 2.2232842
29.290472 21.943419 2.7027066
29.130596 22.163332 -0.9369841
28.747799 22.254374 -0.2904153
28.703857 22.409475 0.365406
28.678087 22.481419 1.4551607
28.888113 22.47786 2.3506732
29.19846 22.330868 2.8309224
29.320522 22.83486 -0.89737904
29.185112 23.052061 -0.3442797
29.061298 23.181667 0.3218138
28.78553 22.912605 1.7964796
29.027044 23.38901 2.302953
29.087614 24.332336 0.78497076
28.60667 24.578133 1.8094964
28.74547 24.720865 2.2816856
28.947842 25.151552 2.9859746
29.330412 25.791506 -0.10715103
29.004433 25.688732 0.5775318
28.461355 25.177927 2.148921
28.683283 25.60284 2.8906388
29.40817 26.521788 -0.21118538
29.083076 26.55078 0.50691867
28.49206 26.141245 1.461213
28.522038 26.309774 2.6026495
28.716103 26.506851 2.7963543
28.901604 27.429234 5.985728
29.423151 27.194277 0.022955284
28.664478 26.879879 1.2923977
28.60852 27.846882 4.890371
28.637499 27.585947 5.628931
28.527018 27.629484 6.6602044
28.480228 28.007288 7.2134676
28.981977 28.809551 1.2972676
28.514849 28.851553 7.9093504
28.691639 29.85654 -2.3348725
28.343178 29.600761 0.20049936
28.078852 29.601875 8.025712
28.34364 30.612621 -3.1306715
28.708464 30.524473 7.5880632
28.794123 31.75279 -3.3772984
29.065716 31.798733 7.845553
28.596073 32.37476 -3.3155415
28.725414 32.57111 8.386222
28.926409 33.028145 8.909969
28.513592 33.303364 -2.895745
28.623753 33.92656 8.742426
28.855276 34.054947 9.28496
29.236149 33.797234 9.778948
28.512907 33.880474 -2.174243
28.405981 34.365376 -1.4794712
28.692951 34.30208 9.376395
29.013954 34.712933 10.063703
29.000786 34.814762 -1.111737
28.762074 34.894543 -0.7281494
28.652245 35.175587 9.62479
28.76681 35.276962 9.842564
28.40817 36.85762 1.2256551
28.24404 36.743755 10.338074
29.026598 37.10164 11.118842
28.217186 37.01401 1.1697303
29.028355 38.18987 12.392836
28.074663 39.34824 13.504333
[...]
POINT_DATA 10985
SCALARS features_00 float 1
LOOKUP_TABLE default
0.580284 0.61518073 0.58154273 0.61838865 0.64456016 0.64390737 0.5674713 0.60919166 0.6438701 0.8320744 0.8126068 0.799168 0.7983762 0.5100494 0.5228285 0.5525916 0.5956769 0.57109225 0.52943814 0.55354387 0.6287055 0.62300134 0.49765414 0.5281539 0.56983155 0.6466249 0.649979 0.39815637 0.44334894 0.54969865 0.6132293 0.61821383 0.32664976 0.31105307 0.36881292 0.49150798 0.3123833 0.3998807 0.47991937 0.5003438 0.5795004 0.50683403 0.5987476 0.61140436 0.6488856 0.67453295 0.5723496 0.62260056 0.70172805 0.73869133 0.7194011 0.5147228 0.5511017 0.6492574 0.7162965 0.7180449 0.6015958 0.6847584 0.6403109 0.662519 0.6724485 0.8293137 0.8378433 0.8086201 0.56035966 0.59912395 0.6373199 0.82518506 0.8388447 0.8211288 0.4383837 0.5246296 0.5383704 0.79700416 0.78591853 0.76106864 0.4934662 0.48214155 0.7449046 0.7256645 0.65669835 0.6071336 0.5645662 0.58357924 0.60391647 0.40031004 0.56227916 0.29614133 0.25015658 0.23539105 0.22131684 0.1956864 0.24474026 0.15990509 0.1312374 0.10657764 0.23260465 0.29239798 0.28906885 0.37230843 0.4385265 0.15556794 0.11432592 0.21763173 0.2530673 0.36124927 0.3962289 0.43752328 0.5429572 0.5832765 0.16959521 0.63598126 0.64165235 0.34981617 0.26793933 0.2610251 0.69206345 0.6698625 0.37130222 0.44164658 0.46742725 0.6941089 0.6752063 0.4112829 0.46662444 0.5226301 0.6807866 0.69977164 0.6774471 0.6567625 0.6952661 0.72153366 0.62307066 0.68520164 0.7124435 0.7299286 0.7862539 0.79739606 0.7060669 0.7080891 0.1141773 0.41736814 0.641152 0.67876846 0.7342305 0.77418506 0.59624 0.67968047 0.7236283 0.3183933 0.5589073 0.6476736 0.40701827 0.51399916 0.59667814 0.48967892 0.45913583 0.39566958 0.34246433 0.30990478 0.35454175 0.29515934 0.03370489 0.20784919 0.35110518 0.28982338 0.16070558 0.255525 0.28787538 0.4293636 0.25257355 0.18043411 0.49859184 0.5528842 0.23445618 0.18445101 0.59951174 0.6123532 0.4074787 0.36880898 0.34393972 0.29424036 0.1501478 0.6400052 0.5267509 0.44376582 0.3929115 0.3487468 0.28072274 0.18898791 0.25387263 0.6863328 0.66916233 0.5084639 0.4576875 0.36868915 0.41958648 0.5202237 0.7150773 0.71648157 0.5259475 0.71567893 0.74665415 0.3851146 0.37662816 0.5408852 0.6077635 0.66884387 0.7714995 0.76657486 0.6951144 0.5880476 0.5176895 0.66352665 0.58044136 0.5322119 0.5460776 -0.19794576 0.418961 0.31896725 0.48328218 0.42909753 0.45156598 0.45892107 0.35260427 0.31640595 0.15087032 0.4026767 0.059972703 0.33625385 -0.11090502 -0.0404313 0.37262005 0.36855143 -0.0041409805 0.1331755 0.3980665 0.3939388 0.32120678 0.37555957 0.50422966 0.37720266 0.5347932 0.533455 0.6635958 0.6118461 0.7302005 0.6693602 0.32136643 0.21412657 0.6864331 0.7424916 0.6867588 0.5762694 0.46888092 0.38446724 0.31496146 0.29121372 0.31568977 0.7272805 0.6594343 0.55101377 0.679531 0.759287 0.75007427 0.84738225 0.7508457 0.7432844 0.6955588 0.8423607 0.71696746 0.7346007 0.73764336 0.6638305 0.58970416 0.5441179 0.6519017 0.6461654 0.63873756 0.5773294 0.51857024 0.5169383 0.49832293 0.44029334 0.4305699 0.47610104 0.3880456 0.27273056 0.37241614 0.3525966 0.32086694 0.13354878 0.22718476 0.37294766 0.35325956 0.13870952 0.21648023 0.3801544 0.41161633 0.41094083 0.4928788 0.16765507 0.3359174 0.43527284 0.49979675 0.6045394 0.6988063 -0.2255629 0.65568954 0.45223394 0.35627085 0.5878188 0.54334044 0.36779684 0.36906102 -0.024126507 0.38868278 0.059436217 0.1585707 0.37211418 0.18237323 0.22971568 0.25171202 0.3595122 0.3656637 0.22424816 0.25454336 0.34019995 0.33278653 0.18516976 0.19566953 0.39846635 0.008083463 0.071364105 0.39895245 0.16963771 0.42196858 0.47157747 0.38007307 0.5027003 0.73274744 0.68702364 0.5884989 0.7740221 0.76554036 0.65198267 0.78746486 0.7754332 0.7407054 0.37759507 0.29579934 -0.11295601 0.6718758 0.70601845 0.76812476 0.7137987 0.63284254 0.5034848 0.1644865 0.45089906 0.63816285 0.71551347 0.9591549 0.9298175 0.9238057 0.87685513 0.8604943 0.8555542 0.8295698 0.7820568 0.7910205 0.8565515 0.8433765 0.8068188 0.8573421 0.856544 0.82675683 0.7893953 0.7771938 0.7224767 0.74158704 0.72410965 0.66010964 0.56813353 0.8260773 0.82912904 0.8462634 0.84854543 0.8035898 0.67765987 0.7025938 0.5514573 0.50656915 0.7690466 0.7462138 0.7801969 0.81517506 0.78799284 0.655336 0.46941835 0.4559314 0.673404 0.7290971 0.7345592 0.73268473 0.416903 0.36816198 0.374995 0.07268205 0.15940428 0.25102085 0.08838318 0.05759301 0.10424668 0.04816112 0.2763971 0.11523192 0.575265 -0.30815244 0.64644194 0.5243002 0.3344177 0.07875362 0.12539807 0.21379042 0.28324327 0.28000507 0.310836 0.20129071 0.27922353 0.34008867 0.3440913 0.16945392 0.25127038 0.18146747 0.241184 0.07269208 0.33715737 0.14188689 0.39785814 0.14748962 0.315304 0.43892056 0.7376145 0.69307774 0.52464396 0.77730286 0.5980577 0.7902279 0.7987317 0.36002457 0.26448503 0.6150462 0.7783128 0.7379315 0.64651716 0.4874034 0.42652655 0.16253814 0.1954909 0.34897196 1.0 0.97425145 0.89316165 0.8239069 0.9194634 0.95707166 0.8664088 0.81609774 0.84533393 0.83903176 0.81950986 0.75669 0.7603035 0.7526016 0.6979785 0.7260636 0.66161805 0.65764403 0.626618 0.52991354 0.6685543 0.7522002 0.7215655 0.7716978 0.68423283 0.7649206 0.8140542 0.72701716 0.71117854 0.675954 0.6741426 0.66186595 0.56960845 0.50233513 0.4562381 0.7053572 0.7386745 0.68557894 0.5688577 0.47361952 0.4680105 0.62775517 0.6985308 0.49643856 0.4699793 0.47074988 0.5478159 0.5997608 0.6320466 0.67141736 0.69541156 0.4600438 0.39808583 0.39920652 0.54055744 0.5838783 0.6151526 0.44572234 0.44704774 0.3915837 0.34735203 0.057116486 0.38791886 0.36876136 0.31916666 0.255292 0.10534694 0.24929163 0.27529073 0.30051893 0.23764217 -0.08185575 -0.035073407 -0.07817276 -0.075451314 0.23542815 0.17379878 -0.07523367 0.25372905 0.42576385 0.24272272 0.23936886 0.2028683 0.080079 0.46095258 0.4630261 0.37946385 0.34998244 0.19851981 0.21869183 0.5196724 0.53885305 0.42985898 0.28490186 0.10394194 0.17409481 0.60827434 0.557541 0.06514399 0.0775003 0.6531809 0.40609875 0.10846159 0.16149394 0.6231177 0.56137645 0.26458725 -0.17946482 0.23732196 0.2703666 0.3005169 0.03815019 0.2653293 0.31998807 0.3422312 0.17093909 0.06861246 0.010779023 0.04962763 0.13858573 0.68803895 0.49829164 0.46732348 0.7985824 0.50254613 0.80437595 0.7967337 0.33067507 0.12569782 0.25833064 0.7703549 0.65837216 0.44856125 0.24071807 0.19816002 0.25495 0.19322744 0.19763175 0.9309317 0.87687457 0.95874226 0.98974717 0.84524196 0.77592933 0.89547765 0.72424376 0.6066755 0.8051466 0.5335312 0.70880365 0.6690935 0.53576714 0.52621746 0.47972804 0.45020324 0.49348223 0.39741176 0.4324047 0.44898897 0.5116816 0.58095324 0.6349301 0.5692793 0.5825517 0.5876686 0.5770259 0.48731995 0.5624583 0.5774025 0.48797673 0.44223833 0.4132958 0.5711722 0.55446 0.32747117 0.42065784 0.42949456 0.46100038 0.46047676 0.54918635 0.52957237 0.5495355 0.44395348 0.20587659 0.47522658 0.4497636 0.6124629 0.56653076 0.4381092 0.461495 0.48271847 0.46454412 0.3971768 0.47831833 0.5265009 0.55117995 0.5537314 0.40924639 0.43989253 0.3436818 0.34205502 0.20010066 0.16302207 0.30456078 0.34323904 0.25140682 0.24303275 0.5138353 0.48667786 -0.1964061 0.5585011 0.5467263 -0.08318198 -0.009838581 0.25962913 0.28892672 0.63504565 0.62706196 0.1728832 0.24467242 0.30523455 0.70132095 0.15555906 0.6727483 0.6310382 0.5574559 0.42490798 0.25267068 0.5981653 0.5265308 0.24627164 0.2050344 0.2438618 0.20965147 -0.2901473 0.17991972 0.025442287 0.07185086 -0.270446 -0.11595592 -0.36521006 -0.16400453 -0.17315914 -0.22895688 0.44526988 0.64104104 0.085171826 0.18443839 0.10849546 0.173777 0.22573772 0.3255595 0.30778563 0.26328403 0.64512026 0.6449628 0.63089895 0.6145519 0.6137888 0.90023005 0.8427925 0.86373687 0.9174322 0.7404513 0.71954954 0.79055333 0.5864012 0.52813804 0.72955054 0.46460778 0.41561517 0.6417653 0.4192775 0.39121103 0.45012778 0.36915272 0.34540218 0.40656495 0.3859205 0.33230436 0.33234295 0.33080423 0.25001213 0.23236838 0.21769424 0.17399973 0.3067506 0.32073382 0.26510018 0.2768041 0.35398388 0.26043344 0.30714306 0.3158461 0.3172896 0.2733717 0.40734822 0.25496134 0.4079994 0.43678597 0.42828298 0.36621726 0.3329289 0.324306 0.36972094 0.39099035 0.26452738 0.30229092 0.37314695 0.4283874 0.298377 0.43490028 0.41007283 0.444996 0.34152782 0.16435061 0.24378689 0.4319337 0.4635167 0.2602743 0.43673453 0.4105109 0.43313688 0.36998707 0.36035118 0.33785853 0.45533806 0.49922952 0.4770859 0.3036065 0.38639522 0.32785606 0.3895337 0.25680512 0.10597062 0.24810708 0.23102765 0.32981545 0.349019 0.18013614 0.35617876 0.4235748 0.25545803 0.52595294 0.44148713 0.5820209 -0.26309475 0.32531175 0.37401423 0.6537744 0.36452937 0.7132579 0.68827677 0.6479388 -0.28865618 0.6234772 0.5456821 0.42064688 0.29202437 0.19396016 0.13117388 0.10194719 -0.080721274 -0.21629602 -0.08667947 0.4385174 0.58519006 0.15124056 0.45097134 0.57198167 0.64353085 -0.4272474 0.3260385 0.50572217 0.58981264 0.4449103 -0.05824673 0.06020139 0.18991448 0.038569406 0.2556314 0.21432045 0.16660213 0.107357256 0.16740671 0.2728161 0.32324696 0.31284392 0.29151887 0.67265093 0.623513 0.6660793 0.6683918 0.65642935 0.62595034 0.5861838 0.6151663 0.64927053 0.6493468 0.6288006 0.5243785 0.5569595 0.587562 0.59256536 0.49486113 0.51247084 0.55397904 0.5629648 0.518092 0.48653263 0.7344246 0.7403641 0.68109524 0.6034337 0.6767243 0.7008531 0.438993 0.6178118 0.43546423 0.39702067 0.52642894 0.32442176 0.3883279 0.30110216 0.25178915 0.2713141 0.26421168 0.2524107 0.1880717 0.15185088 0.25472543 0.21702307 0.094211966 0.20958869 0.21155828 0.2804774 0.21226436 0.17027023 0.30823946 0.30300742 0.20176119 0.27191812 0.26957542 0.20759353 0.23200245 0.37752116 0.35013825 0.2966605 0.28474218 0.29369444 0.16943556 0.16677728 0.28070718 0.33134478 0.31452715 0.27577323 0.2687596 0.30747995 0.34319395 0.37747753 0.10355459 0.23826665 0.21197122 0.3855604 0.37470958 0.13596766 0.17971738 0.37969345 0.1270056 0.105339244 0.30905747 0.37666887 0.3783475 0.3381226 0.16516502 0.2516162 0.12241711 0.2768896 0.19130021 0.18914202 0.30424112 0.25747633 0.25544608 0.15256113 0.24239491 0.27173737 0.20288125 0.25230917 0.19766316 0.3456599 0.5399679 -0.037105784 0.084372304 0.17765513 0.3174579 0.6031292 0.37677234 0.3830638 0.73381793 0.77747613 0.63671315 0.61776674 0.42072657 0.7453591 0.7677577 0.6489517 0.3759749 0.68768024 0.66981804 0.64440215 0.51437145 -0.26171345 0.11608352 0.25119865 0.6109834 0.51319206 0.42976922 0.33155054 -0.087703496 -0.2906357 -0.2917797 -0.0076170415 0.04664953 -0.2115602 -0.14004716 0.20148663 -0.17892659 -0.28761667 -0.05346711 0.61944747 0.6602553 0.6698379 -0.40301192 -0.6780094 0.6563674 0.6658231 0.6118932 0.6317351 0.51335514 0.18442437 0.01701276 0.100396976 0.15142074 0.289154 0.264901 0.12263213 0.04836288 0.25346962 0.2227599 0.17150429 0.2774008 0.27948368 0.28844872 0.1695619 0.64149755 0.6594006 0.6426413 0.5922829 0.6328114 0.6614638 0.60888106 0.553304 0.5623412 0.5015194 0.5166698 0.46614158 0.46336797 0.48375973 0.39651957 0.33962315 0.43930498 0.41573954 0.39894313 0.3354685 0.43693542 0.41859132 0.3222631 0.4207487 0.51645505 0.48302764 0.47626746 0.56237507 0.5741439 0.68265295 0.675099 0.6360861 0.55532897 0.60582966 0.37327573 0.33360565 0.24668968 0.23845199 0.1931964 0.16555084 0.22034195 -0.18997006 0.27013764 0.04944706 0.28069153 0.086210705 0.24408008 0.013028561 0.16977341 0.18521574 0.26842022 0.10889612 0.081857756 0.12228749 0.288683 0.28353804 0.26425043 0.27150497 0.2971173 0.3250263 0.23148301 0.18871932 0.15399155 0.29130006 0.16436443 0.1308714 0.25790077 0.3390129 0.24217726 0.18923539 0.2020798 0.26655892 0.12380327 0.29564616 0.27229193 0.23135689 0.14035186 0.2861165 0.1985222 0.2410116 0.25473234 0.1271954 0.12522031 0.2614975 0.30578268 0.21601261 0.26035327 0.18243337 0.2831768 0.31909162 0.35519806 0.229326 0.24567278 0.300043 0.012671217 0.22820368 0.49581206 0.7335882 0.74837446 0.55047286 0.43039632 0.55096996 0.6467914 0.7664188 0.7799453 0.4676383 0.42798805 0.7365377 0.7637516 0.5869211 0.5323988 0.36200464 0.6479992 0.6426922 0.6401339 0.605248 0.5199245 0.3775515 0.3004565 0.0878595 0.07011337 -0.087051615 0.016291052 0.4409492 0.39781404 -0.2413001 -0.32509282 -0.29144853 -0.20942193 -0.034784496 0.52541333 -0.2741863 0.6381593 0.6452556 -0.19008136 -0.33795857 0.6577923 -0.25456032 0.5613249 0.35819396 0.09085403 0.49772286 0.05244804 0.077537976 0.529133 0.42466146 0.027761748 0.30694172 0.19755106 0.21315326 0.2608833 0.2085906 0.28332317 0.3784661 0.40267384 0.3306626 0.38606924 0.41402036 0.57889444 0.59706193 0.5632576 0.57429636 0.52493644 0.5305828 0.5882987 0.5475048 0.6511883 0.67285424 0.53418154 0.61035335 0.6375424 0.49656537 0.50566065 0.44570896 0.45269662 0.31722015 0.43266386 0.36128622 0.29576898 0.3141814 0.2639403 0.46285534 0.4357069 0.21942228 0.27760226 0.31920257 0.5256428 0.57111984 0.63866985 0.5811763 0.39143258 0.34474656 0.1966472 0.03829795 0.16098021 0.12816031 0.09991206 0.14931893 -0.14529519 0.2484411 0.5254551 0.60148036 0.65497935 0.27951354 0.49641237 0.56472915 0.68403256 0.73627317 0.7172843 -0.207039 0.10247989 0.22934502 0.4833334 0.55209935 0.68885636 0.7493373 0.7263166 -0.106152706 0.1464164 0.4972446 0.573375 0.66883945 0.6863246 -0.12067753 -0.118616655 0.2383036 0.046829082 0.06601179 0.30843484 0.31211492 0.36919963 0.3480146 0.29897255 0.25981066 0.037895244 0.02110114 0.14448053 0.22103392 0.24743009 0.3314593 0.3969689 0.37999094 0.33368933 0.33115646 0.27618647 0.13798036 0.15322605 0.1652487 -0.009534791 0.145028 0.124316595 0.080544695 0.32860142 0.22645545 0.31344616 0.1881647 0.18959643 0.20092648 0.13620877 0.23065639 0.024198607 0.19882897 0.20486754 0.1263865 0.123873904 0.16632095 0.27550215 0.21712695 0.1377249 0.13263035 0.31277302 0.271878 0.15814343 -0.16571602 -0.001087375 0.37124684 0.3436292 0.304101 0.30957335 -0.3439831 0.04162111 0.044421837 0.17926677 0.29170156 0.298468 -0.01399122 -0.043947786 -0.11292507 0.645514 0.70799476 -0.04649922 0.7483126 0.713979 0.33419788 -0.04915207 0.71156955 0.708513 0.37026778 0.06238229 0.09796053 0.5498442 0.6265147 0.6418588 0.29127145 -0.0051720366 -0.046776056 0.24212463 0.44033155 -0.31135488 -0.2163853 0.13372292 0.28162757 0.071085975 -0.20815715 -0.046360895 0.19461812 0.18645951 0.33586597 -0.21315205 0.35556754 0.547442 0.17845163 0.0062273666 0.58171195 0.23581201 0.3177011 0.44051406 0.03603589 0.51524615 -0.01426368 0.5251037 0.5076192 0.031872407 0.36896226 0.21839091 0.16692543 0.103104964 0.07265636 0.043339387 0.19564609 0.17956904 0.15032631 0.3525113 0.24977204 0.40384036 0.39042944 0.16391554 0.3677143 0.36981714 0.5246582 0.53935474 0.5095084 0.4550767 0.45504126 0.27524436 0.4900628 0.5460949 0.6017741 0.6308597 0.43679 0.37440586 0.66935354 0.3524242 0.6419405 0.6235621 0.40970117 0.48161483 0.50642556 0.3735049 0.416457 0.26577526 0.26753554 0.41108888 0.3094557 0.25779536 0.622135 0.32434803 0.3012535 0.18080711 0.32545507 0.59522223 0.62501657 0.6438674 0.006532737 0.39127293 0.6120696 0.15670018 0.2972734 0.105621696 0.20318612 0.07908285 0.19732052 0.12626505 0.4734136 0.18188365 -0.21401 -0.09843491 -0.07068105 -0.015019134 0.45199594 0.43699163 0.09529553 0.44440216 0.46334612 0.2820329 0.26037133 0.051685084 0.1029002 0.09866217 0.43618482 0.46147734 0.46875083 0.26510185 0.2471402 0.1500113 0.03768397 0.44210365 0.24414212 0.23893997 0.15894128 0.054193 0.38801253 0.14288706 0.033934075 0.44454324 0.4597353 0.6006055 0.5617744 0.025668805 -0.015564765 0.2397806 0.44579017 0.64915955 0.56706953 -0.16991237 0.36644557 0.41905937 0.6444263 0.4888809 -0.28568816 -0.26969945 -0.027839102 0.34988767 0.38801244 0.41894257 0.5905152 0.61925113 -0.29739743 0.02028393 0.24539395 0.3508645 0.43448827 0.2765007 0.29280883 0.3412294 0.3780132 0.24258468 0.123243324 -0.0015939996 0.09163547 0.21513566 0.24444258 0.2860222 0.30186492 0.40547192 0.43611073 0.36049405 -0.041198976 0.14654076 0.19304149 0.40375894 0.43961394 0.43873245 0.38719153 0.43515006 0.37930876 -0.17609389 0.12567727 0.13807319 0.046826344 -0.079712346 0.13448358 0.34750262 0.23439571 0.3729609 0.17268863 0.1015999 -0.069282494 0.11888026 0.2696787 0.19808468 0.14751792 0.27701584 0.19785464 0.07630426 -0.050854042 -0.0852337 -0.07212117 0.13824776 0.12946625 0.21569884 0.2423456 0.0077703297 -0.227705 0.12403588 -0.3198068 -0.02726008 0.27710116 0.27041963 0.2958076 0.30598447 -0.5400959 0.19908392 0.26849195 0.3444663 0.3835699 0.40574116 0.5480659 0.3359872 -0.090934984 -0.23688604 0.7018208 0.6784844 -0.19813275 -0.19603518 0.6572152 -0.14123183 0.5638385 0.6052116 0.19973347 0.38209787 0.49488154 0.28440866 0.2602077 0.33569026 0.10522455 0.3499396 0.3715047 0.16644152 0.07651889 0.36142597 0.18289798 -0.054612987 0.15812325 0.22820476 0.36522174 0.42758125 0.18484482 0.46699414 0.47981238 -0.07297123 -0.0016659126 0.47648084 0.4884668 0.44378382 0.3658417 0.24714433 0.06306347 0.026681323 0.15712789 0.11848597 0.1950452 0.2322039 -0.034076072 0.20926523 0.22898555 0.18710186 0.07326318 0.2818593 0.26122037 0.097662315 0.2639013 0.25806326 0.32384643 0.21709523 0.28950107 0.23785815 0.41606995 0.4361058 0.49258846 0.52212876 0.49438888 0.5110879 0.3620202 0.50344515 0.55199206 0.5643877 0.14947233 0.15574539 0.3203452 0.5758554 0.5970986 0.28865603 0.26814207 0.65511215 0.64034474 0.31491953 0.30982304 0.5730263 0.32850236 0.29312682 0.42260095 0.4247735 0.3246745 0.364036 0.2786005 0.52460915 0.5605053 0.5719015 0.21181986 0.44187552 0.5660447 0.60324657 0.64383787 0.5743079 0.24832147 0.21238437 0.22450589 0.45170236 0.557994 0.62909114 0.5804943 0.08783773 0.09963931 0.07559059 0.30205178 0.23634109 0.2622646 0.3913878 0.53537714 0.56198275 0.55553734 0.5128056 0.42312634 0.072817214 0.14141674 0.13082798 0.027367648 0.3309749 0.5352913 0.5503367 0.5450049 0.5110661 0.4430221 0.47583765 0.47448486 0.45824057 0.015183017 0.20859754 0.5186951 0.5474463 0.5531031 0.5142067 -0.19729333 0.53034514 0.48320195 0.5017177 0.51218027 0.4814477 0.20964602 -0.17545055 0.079633296 0.37184185 0.482582 0.56747574 0.57471347 0.38089085 0.4183254 0.43114853 0.3513621 0.3897348 0.45424712 0.4600191 0.40728697 0.2465714 0.1886202 0.26023832 0.504101 0.55026186 0.3414008 0.3877114 0.35647494 0.32793626 0.37000644 0.4188584 0.47595692 0.47651652 0.38832703 0.31314152 0.2966945 0.44845405 0.25539166 0.26750246 0.18842416 0.321334 0.418578 0.45870653 0.46659523 0.3789318 0.29635862 0.29110214 0.040979356 0.14786068 0.1929138 0.13847128 -0.10861866 -0.020628072 0.39267796 0.43387115 0.39784572 0.35661006 0.26622212 0.2559837 -0.00023513287 0.08803461 0.09237129 -0.04700706 0.28413206 0.36315024 0.19365105 0.17165223 0.18199787 0.3208607 0.43823928 0.15773132 0.06204324 0.2334967 0.31551635 0.41161022 0.4292649 0.41063088 -0.05898597 -0.03495482 0.11525598 0.28677547 0.31422454 0.3962977 0.4597207 0.4377341 -0.21325698 0.3026873 0.23043227 0.25596076 0.3986957 0.3229242 0.40260237 0.24765715 -0.31130952 0.20034662 0.199145 0.1758163 0.17282794 0.20583862 0.25576624 -0.05363626 -0.01873748 0.17249298 0.25809303 0.11458002 0.4933672 0.39130935 0.08245175 0.15219794 0.096028484 0.17914703 0.19240113 -0.011975706 0.073283836 0.064885326 0.502676 -0.007232233 0.020160023 0.038539156 0.3456201 0.4194014 0.06784812 -0.020748425 0.4696486 0.45503628 0.5113068 -0.03400217 0.004031539 -0.0034188107 0.49474794 0.5077464 0.4862436 0.05873999 -0.081228286 0.38662297 0.47093004 0.41806984 0.35133862 0.47199795 0.46136424 0.059291966 0.28215072 0.51320195 0.09886801 0.25262326 0.33564234 0.3303429 0.28949243 0.2061286 0.38043064 0.07452537 0.38687414 0.6224696 0.19411701 -0.31749943 -0.38829464 0.10624811 0.14859259 0.10351875 0.19278845 0.13219547 0.51369137 0.67932117 0.7250558 -0.2603347 -0.021772226 0.08006955 -0.009273738 -0.036722235 -0.027228355 0.047967926 0.05566713 0.22112437 0.4601692 0.7001458 0.33319885 0.1601019 0.38744664 0.40514404 0.15360999 0.41470513 0.41929823 0.41848308 0.45849603 0.40404126 0.4005199 0.19790657 0.637334