# vtk DataFile Version 2.0
Really cool data
ASCII
DATASET POLYDATA
POINTS 2381 float
23.373796 39.18646 -7.384388
23.280428 39.12118 -6.551059
23.308125 39.161495 -6.006598
23.259426 39.41502 -7.264875
23.021038 39.683067 -6.474253
23.009953 39.711906 -5.61153
23.183313 39.88143 -4.8888645
23.17413 40.378853 -7.1071835
22.855724 40.53048 -6.194611
22.828146 40.420315 -5.4789386
23.077677 40.430607 -4.775431
23.331821 40.91599 -7.172479
23.10704 41.227806 -6.317731
22.936008 41.099537 -5.5345078
23.139578 41.141914 -4.7650466
23.326029 41.90986 -5.446895
23.922686 39.01075 -7.8320704
23.685102 38.87225 -7.3544893
23.615574 38.811882 -6.6362443
23.792547 39.030926 -5.541509
23.699923 39.298386 -5.0816174
23.803553 39.575737 -7.938965
23.462921 39.282597 -7.605401
23.573092 39.67343 -4.7297883
23.871304 40.23802 -7.9612927
23.50277 40.60952 -7.4986587
23.380287 40.29773 -4.4081993
23.65794 40.50464 -4.082959
24.002956 41.139633 -7.729706
23.534643 41.16351 -7.2364707
23.80485 41.40491 -3.742346
24.314985 41.672215 -2.8817194
23.904041 41.96295 -6.90335
23.71126 42.13897 -6.4683914
23.603537 42.368233 -5.6876187
23.608568 42.06629 -4.594047
23.961946 42.286724 -3.529964
24.290018 42.392685 -2.7862928
23.909845 42.837944 -5.9309464
23.893053 43.170113 -5.4919086
24.19331 43.40721 -4.3347783
24.281559 43.351875 -3.4731753
24.285349 43.049313 -2.9099178
24.465702 45.102165 -5.093411
24.250685 38.495506 -6.9453773
24.470049 38.95529 -7.8930283
24.328829 38.6073 -7.4215574
24.515867 38.529903 -6.4618497
24.471315 38.758656 -5.663195
24.575016 39.14606 -4.9859786
24.418287 39.454117 -8.146408
24.439564 40.63537 -8.148352
24.680794 40.790104 -3.0176296
24.725988 41.376476 -8.062395
24.429777 41.28092 -2.992115
24.953405 41.629173 -2.3018253
24.64511 41.839867 -7.8217373
24.653791 42.636738 -7.086735
24.47974 42.45126 -2.478488
24.729708 42.381332 -2.222482
24.417637 43.22505 -6.2954497
24.695131 44.63169 -5.594468
24.6601 44.622547 -3.7542205
25.488932 44.152924 0.81183374
25.470268 44.140965 1.0547304
25.00459 45.464394 -5.838479
24.690735 45.6443 -5.27959
24.50885 45.521885 -4.774712
24.707096 45.235863 -3.868319
25.255857 44.97176 -3.2809992
25.320415 46.289642 -5.844237
24.93849 46.45908 -5.3206606
24.744913 46.217228 -4.505406
24.946926 46.284927 -3.931643
25.234116 47.025185 -5.4632187
25.218834 47.36779 -4.598052
25.214989 47.053932 -4.024187
24.918861 38.78815 -7.7606325
24.965883 38.703938 -7.4731317
25.359365 38.711952 -6.486104
25.305624 39.241688 -4.909344
24.948757 39.460453 -8.149957
25.682192 40.18805 -2.9354246
25.311466 40.643463 -8.233918
25.87975 40.784504 -2.329127
25.622242 41.36778 -8.275756
26.058033 41.24322 -2.0487251
25.449015 42.14432 -7.9744077
25.574667 42.44726 -1.8260007
26.117031 42.90803 -1.3413477
25.917507 43.276253 0.4992341
26.064768 43.19487 1.5570984
26.27498 43.300156 2.3680274
26.328074 43.53018 -1.4329722
26.080132 43.656235 -0.83331716
25.546484 43.953415 0.32468778
25.746769 43.705532 1.5698946
25.937204 43.677498 2.3800535
26.065756 43.84748 2.8673425
25.686516 44.832344 -6.213001
25.645975 44.768196 -0.24385266
25.547544 44.520233 0.576491
25.5856 44.473503 1.6086318
25.780622 44.523426 2.4870942
25.97517 44.354088 2.929033
25.829317 45.548763 -2.9256034
26.438585 45.751602 -0.6761241
25.837849 45.27141 0.5254036
25.857256 45.19144 1.5135674
25.88384 45.02131 2.3253267
26.156548 44.907322 2.9287457
25.458744 46.375286 -6.1417174
25.923622 47.18291 -6.2060084
25.41915 47.626415 -4.5376906
25.56074 47.49054 -3.821967
25.965181 47.378002 -2.8345773
25.720072 47.848625 -5.30755
25.60299 47.77657 -4.2494082
26.111782 48.149445 -3.904505
26.306301 47.781265 -2.9643958
26.279392 50.096943 2.7931676
26.110971 50.80532 2.063782
25.935839 50.73611 2.6291811
25.965542 50.707516 3.197882
26.225397 50.962376 3.978837
26.177319 51.366234 1.8635519
25.895323 51.404312 2.6740103
25.888424 51.517303 3.5123775
26.11289 51.594654 4.0455675
26.109486 51.991043 2.7340486
26.060156 52.13226 3.5055594
26.164915 52.020546 4.0233073
26.601755 39.189247 -6.4805956
26.198442 39.24735 -5.5594573
26.120577 39.328598 -4.7536983
26.229689 39.43016 -4.077334
26.372137 40.182316 -7.899485
26.718847 39.58642 -7.282332
26.386335 40.155132 -2.699853
26.255798 40.58876 -8.152842
26.27743 41.281906 -8.177999
26.960318 41.49651 -1.676639
26.706493 42.22831 -1.2855877
26.013494 42.234005 -7.984685
26.541803 42.924484 1.4762074
26.47892 43.135742 2.348835
26.637766 43.32241 2.8799782
26.618374 43.637726 3.1648881
26.533377 44.470455 3.329457
26.866829 44.119507 3.5173209
26.562538 45.552795 -6.7970123
26.500036 44.999527 3.1060574
26.393839 46.619938 -6.7617874
26.760998 46.236355 0.6769496
26.425259 45.670284 2.30274
26.986134 47.22572 -0.64451844
26.79617 48.76314 -6.0669494
27.073454 48.519787 -4.5239096
26.875496 48.44837 -3.335662
27.293535 49.689404 -7.322872
27.071095 49.36894 -5.5171003
27.002419 48.88177 -4.5441623
26.974598 48.612366 -2.8956316
26.431747 49.976463 2.5508516
26.977165 49.60069 3.0019534
26.751665 50.184673 3.8664467
27.302687 50.34619 -7.788725
27.090952 50.57641 -7.364291
26.920105 50.27582 -6.2788363
26.951641 50.922276 -5.2109747
27.145176 50.51166 1.0501113
26.429876 50.932774 1.7031069
26.33597 50.434013 3.6988835
26.498602 50.80963 4.1359243
27.160036 51.736717 -7.8963804
26.778816 51.524754 -6.3993335
26.665667 51.81147 -5.622179
27.06806 51.546825 -4.8402514
26.4553 51.63069 1.8643742
26.491726 51.603287 4.4235044
26.921177 51.621655 4.600388
27.168055 52.42567 -7.300326
26.79959 52.287594 -6.45056
26.766922 52.479412 -5.6226315
26.739576 52.108826 1.9891326
26.51008 52.471478 2.6531806
26.436415 52.54391 3.597469
26.579012 52.31413 4.175775
27.005402 53.07542 -6.3724437
27.025126 53.072983 -5.829341
27.158997 52.881336 -5.0659633
27.018738 52.765835 2.8314638
26.656338 52.68999 3.541684
26.80004 52.641018 3.9780557
27.833105 39.260986 -6.5503044
27.310612 39.34428 -5.6439447
27.733412 38.966892 -5.03345
27.90725 39.335815 -3.8938851
28.184937 39.40636 -7.1492686
27.181976 39.835175 -3.4693716
27.962881 41.762333 -1.3873744
27.492208 43.183395 -7.150778
28.340185 44.76686 3.9762805
27.506165 46.749504 -7.0874696
27.3904 45.89937 2.3483098
27.55973 47.434177 -6.648834
27.523521 47.47264 0.5244943
27.731426 47.604755 1.4455998
27.823835 46.850258 2.232963
27.845348 48.98581 -7.822153
27.600735 48.549885 -1.4684716
27.786482 48.159492 -0.4958264
27.865105 48.99602 0.80654895
27.65285 48.728947 1.1702621
27.644318 49.16834 2.4747455
28.290342 48.777637 3.2272189
27.882637 48.909946 -1.8607954
27.675596 50.78102 -8.304417
27.51224 50.4523 -4.7697964
27.548159 50.69965 0.7217171
27.18542 50.667812 4.3851314
27.996288 51.29833 -8.673593
27.640686 51.47645 -8.377628
27.830244 51.68608 -4.2579193
28.177107 50.94348 0.19569078
27.809855 51.18495 0.61812377
27.39426 51.640804 4.6763916
27.82887 52.19751 -8.407613
27.405586 52.728596 -4.6952305
27.73219 52.30844 -4.3085833
28.13808 51.982033 1.0213684
27.394037 52.42014 4.4068546
27.359663 52.01854 4.6180987
28.088245 53.078472 -8.217104
27.73808 53.363075 -7.2593937
27.59727 52.65285 2.1110451
27.70727 52.941723 2.6908944
27.58398 52.98325 3.4976265
27.680387 52.842434 4.0004616
28.193333 54.093685 -7.8098516
28.158377 53.99912 -7.5799065
27.600853 53.841373 -6.3582153
27.98235 54.117905 -5.412497
28.176205 54.061016 -5.1795297
28.370607 55.593063 -7.3493795
28.365479 55.24528 -6.681921
28.272495 55.085415 -5.832605
28.40539 56.345886 -5.1606846
28.40067 56.18796 -4.9292274
29.358711 34.480583 -4.259458
29.253223 34.541924 -3.6521738
29.342144 34.818275 -2.6463976
29.31404 35.119766 -4.3663406
29.163502 35.362854 -3.5248258
29.256443 36.534344 -2.2109098
29.308613 36.839485 -1.4486005
29.33277 37.03861 -2.1925986
29.234827 37.187176 -1.6039379
28.851267 39.1995 -7.6581454
29.067652 38.560345 -6.5946913
28.786346 38.529446 -4.6226683
28.913065 39.30508 -3.1986961
28.949625 40.0213 -8.225506
28.892508 40.13398 -8.245024
29.211863 40.424664 -1.8886734
29.096956 41.25574 -8.389689
28.133917 41.840343 -1.3313799
29.09338 41.686592 1.2739768
29.428007 41.543297 3.5609732
28.334942 42.38788 -7.786542
28.991674 44.035122 -8.809153
28.684208 43.225563 -8.303341
28.995825 43.6601 4.4689364
29.029839 43.840008 5.705474
29.019627 44.061108 6.1520915
29.087885 44.506927 -8.873213
29.011728 44.199516 4.427863
28.865301 44.364403 5.3037143
28.826693 44.549778 6.4103904
28.993696 44.927715 7.2943654
29.182804 45.175026 7.742279
28.954771 45.62745 -8.060938
29.049236 45.52118 5.038177
28.803835 45.584682 5.4440823
28.562382 45.663757 6.6726246
28.803791 45.594795 7.3747363
29.107895 45.568653 7.834831
29.171007 46.01162 3.1264272
29.056414 45.88059 4.6116643
28.692604 46.157097 6.820565
28.880516 46.27734 7.344531
29.150112 46.107567 7.822233
28.444628 47.76716 2.6084623
29.031113 47.216667 2.9231255
29.276733 46.885143 5.8383813
29.07529 46.702866 7.1024804
28.92471 48.68693 3.7060425
28.021502 48.871143 -2.7618637
28.312191 49.835255 3.8194518
28.388662 50.7314 -8.781496
28.654646 50.86368 -4.3818445
29.041643 50.693676 -0.17991322
28.20301 50.834248 4.3850994
28.808023 51.504887 -9.098324
28.72348 51.61685 4.492186
28.431337 51.705833 4.649686
28.902563 52.479362 -9.301614
28.2955 52.706036 -4.253118
28.919302 52.394417 1.1814673
28.531357 52.46348 1.384911
28.635916 52.47587 4.4762063
28.351194 52.236588 4.601151
28.936058 53.38274 -9.3280325
28.750227 53.741264 -4.5429006
28.601671 53.129494 2.7078743
28.510035 53.187786 3.4839284
28.671919 52.96649 4.077379
29.125683 54.288414 -9.393235
28.583265 54.59781 -8.358547
28.747492 55.16747 -8.404338
28.565454 54.97438 -5.6598873
28.903656 55.927982 -4.0684237
29.32963 56.491695 -8.825197
28.816416 56.201477 -8.2223215
28.512926 56.40901 -7.3435063
28.673258 56.854492 -6.6695995
28.912071 56.646076 -3.9859707
28.818417 57.85634 -7.210987
28.592705 57.158707 -5.822395
28.777397 57.269684 -4.645935
29.12671 57.152615 -4.0140533
29.233238 58.132484 -7.7438116
29.106428 58.42988 -7.1530805
[...]
POINT_DATA 2381
SCALARS features_00 float 1
LOOKUP_TABLE default
0.881086 0.86499214 0.83238894 0.8761957 0.8603622 0.7991241 0.7227802 0.78291774 0.7769172 0.7459724 0.6575684 0.66191757 0.6190431 0.6563671 0.5812602 0.5148357 0.86759436 0.8737463 0.8555387 0.7753109 0.74344456 0.8473067 0.87539333 0.6955921 0.77306473 0.72361493 0.60626686 0.50913405 0.61366695 0.6071464 0.40939617 0.34441996 0.4970613 0.4756465 0.44458637 0.44748294 0.34399086 0.31648776 0.37044084 0.32077783 0.2985442 0.28980753 0.2861234 0.3840373 0.83580345 0.84752464 0.8478695 0.77871764 0.68931115 0.6067889 0.8263116 0.6822378 0.37060162 0.5828799 0.35342997 0.32767224 0.54246354 0.42599759 0.30288386 0.2975846 0.2815775 0.31660607 0.34640068 0.50116867 0.5378465 0.39216813 0.42405194 0.43240148 0.40423155 0.32332838 0.43795526 0.4513858 0.4565444 0.43048352 0.44540766 0.39178377 0.38654178 0.80642897 0.788501 0.6059811 0.42321527 0.7800868 0.38694614 0.62400323 0.35529792 0.55625343 0.31668437 0.5043487 0.24505171 0.15754952 0.37426454 0.5744018 0.6296276 0.07513836 0.17213805 0.40567812 0.5933712 0.64208734 0.6501445 0.33218563 0.35377687 0.4678601 0.60268974 0.65269196 0.6511723 0.3129186 0.2452209 0.44361618 0.5551369 0.62636614 0.62009364 0.43231067 0.43862045 0.34795806 0.32331973 0.28135133 0.35837406 0.30256575 0.22653091 0.25400805 0.7845216 0.8163149 0.8828585 0.8960209 0.9106922 0.80463326 0.92518234 0.9587798 0.94797564 0.92442816 0.95420706 0.95038915 0.33080736 0.28932166 0.23448731 0.18414937 0.5615134 0.44310084 0.30230606 0.55831325 0.4947727 0.2263583 0.19485 0.4429276 0.509039 0.60188484 0.5990666 0.60902095 0.6000794 0.55807596 0.32548392 0.56339324 0.3766315 0.24172914 0.50043386 0.0913389 0.19234313 0.16788217 0.19484629 0.32746074 0.094479725 0.12244121 0.22289586 0.73640573 0.60013986 0.74136794 0.35487005 0.39428955 0.3614153 0.5125525 0.5272 0.74203056 0.8344449 0.8745354 0.3891052 0.5118823 0.57464796 0.5752802 0.7774842 0.9188854 0.87875825 0.4193906 0.50311255 0.55880034 0.79081714 0.8905684 0.9307045 0.92566866 0.44992277 0.4921565 0.53977525 0.8666085 0.91515064 0.91054344 0.17048152 0.14582516 0.07464442 0.018359408 0.219699 0.12518755 0.10230725 -0.08985195 0.09261954 0.16403154 0.24264285 0.22784843 -0.014792446 -0.008686736 0.005410455 0.116920225 0.32724887 0.035137862 0.1265608 0.10819967 0.3015501 0.14550287 0.34242713 0.3133297 0.426857 0.52073777 0.7888354 0.27932173 0.32310218 0.54963833 0.54782057 0.575986 0.81780267 0.31288764 0.5485256 0.55058926 0.6193256 0.8534639 0.83894813 0.2918083 0.32470316 0.7649963 0.82106966 0.8676834 0.8538381 0.22600293 0.23724282 0.3428735 0.37289762 0.38824838 0.25334358 0.2419467 0.24316365 0.43189144 0.45203486 0.68729234 0.7099752 0.6268081 0.6310767 0.62652946 0.4258455 0.43005872 0.3384526 0.37692678 0.2615301 0.21788177 -0.020801887 -0.058979765 0.22945899 0.21713744 -0.16157065 0.07074617 0.07299953 0.068516865 0.095817074 -0.011893004 0.1057853 0.06026546 0.19273248 0.3551051 0.43805498 0.113619685 0.251462 0.38989663 0.5821041 0.7176912 0.7259251 -0.03332111 0.4255092 0.5266117 0.73036146 0.7485503 0.7347551 -0.20620076 0.27385697 0.7374208 0.7391179 0.7256443 -0.07199481 -0.1303056 0.6174109 0.7171546 0.032408133 0.26822454 0.48919535 0.22371283 0.42470896 0.44418308 0.6753125 0.20545325 0.6689755 0.69533706 0.20750263 0.49034244 0.6388824 0.6650155 0.7353895 0.735302 0.23291154 0.41689742 0.8017969 0.8335126 0.78852093 0.25063384 0.2178316 0.23719124 0.25075814 0.61228186 0.30857664 0.2989439 0.33579057 0.4174521 0.6732749 0.49590686 0.520977 0.66197765 0.67654324 0.46518725 0.55772907 0.64486724 0.74252963 0.65321976 0.6726439 0.6997003 0.73259807 0.68148494 0.56390077 0.6430445 0.67820716 0.6261476 0.53715 0.60202163 0.6341436 0.49597928 0.48186165 0.54795945 0.48360127 0.43620253 0.21246874 0.22283202 0.36780798 0.22179855 0.24836741 0.18011194 0.18712005 0.16251247 0.20100802 -0.054617047 0.009820387 0.04711502 0.106183305 0.14380504 0.17696014 0.036846578 0.14102194 0.0007994883 0.039438162 0.17098667 0.20812744 0.045339078 0.100708544 0.40647364 0.49933296 0.6741326 0.123920016 0.69918525 0.6889925 0.05821931 -0.026244903 -0.112823635 0.63057435 0.67053044 0.64998317 0.13686068 0.04860582 0.09191458 0.046752222 0.121752724 0.05874999 0.6127892 0.10685262 0.16553533 0.6420852 0.6408891 0.14447863 0.18376644 0.58626986 0.7025486 0.6852796 0.15984192 0.6970731 0.76299864 0.77086234 0.7453364 0.22339356 0.42257243 0.24760202 0.2735119 0.637235 0.30283841 0.30095282 0.65235746 0.35636094 0.653754 0.46197578 0.5170447 0.632161 0.614947 0.515153 0.5961093 0.6910044 0.7491895 0.6612098 0.6812856 0.7165524 0.7315948 0.6127968 0.53103113 0.6364467 0.64762616 0.47454488 0.582567 0.46006307 0.5673583 0.40154487 0.3078444 0.21609691 0.14124155 0.16487247 0.38900805 0.37173435 0.30433887 0.09072706 0.18191306 0.23845315 -0.031554163 0.06092856 0.2148464 0.046731506 0.2894904 0.067749545 0.58817786 0.64777565 0.6046689 0.48180556 0.47969463 0.15214987 0.3298832 0.43597668 0.1121428 -0.22292317 -0.14896718 -0.2267515 -0.009555288 0.52081347 0.07681859 0.4573171 0.63800335 0.5969627 0.08064113 0.0868217 0.5041411 0.51691246 0.607466 0.67554957 0.690338 0.12926461 0.19674252 0.6948817 0.72965384 0.72810817 0.26977473 0.51563495 0.3219118 0.56901133 0.33276683 0.33691514 0.57753295 0.3486846 0.45618004 0.5964044 0.56535965 0.46883395 0.5875481 0.64927435 0.7264975 0.66246015 0.69681114 0.73723066 0.6727495 0.6952638 0.70905554 0.68595827 0.561374 0.5064491 0.49320403 0.64302707 0.65670586 0.48737615 0.47794694 0.6102092 0.46391493 0.58901274 0.39927265 0.19013527 0.07045783 0.39769498 0.38135043 0.20161228 0.14053087 0.18046488 0.20283362 0.27052176 -0.09732233 0.19704102 0.17970495 0.23106939 0.23830047 0.10200356 0.13022032 0.12103709 0.1144828 0.15894556 0.13728812 -0.08222158 0.023802944 0.076400444 0.038934465 -0.024172932 0.75703114 0.68586504 0.099511795 0.09067167 0.36369222 0.7869536 0.7570451 0.6964325 0.11366233 0.11740854 0.46452463 0.7486323 0.7207743 0.60895824 0.48312303 0.37974045 0.3022874 0.08057745 0.08349675 0.35114846 0.70009434 0.67467004 0.6055577 0.4377849 0.33426037 0.45227468 0.4242213 0.02140496 0.26211154 0.3314349 0.416857 0.47168207 0.53489375 0.131229 0.3031864 0.533109 0.56565344 -0.30954978 -0.36935994 0.12212503 0.123979 -0.24964824 -0.13259013 -0.28570184 0.19916496 0.33490098 0.16571382 0.49822718 0.62281793 0.34908772 0.25040373 0.368739 0.2472088 0.29853415 0.31525716 0.4761773 0.30621937 0.5393566 0.50860286 0.41196162 0.53835076 0.604012 0.6831142 0.6023767 0.7073867 0.65573055 0.53445125 0.5231298 0.50459033 0.50347674 0.6555228 0.67805094 0.45490867 0.504053 0.50363857 0.49410844 0.6512554 0.4834737 0.3033783 0.32041466 0.3279475 0.11961408 0.1067031 0.48490024 0.46534324 0.45502526 0.28522912 0.305808 0.12907392 0.27871314 0.3483759 0.3662188 0.28754848 0.27505523 0.25277054 0.19902897 0.21595235 0.20023431 0.49698377 0.56631327 0.5864954 0.28502876 0.25368577 0.18001994 0.25799122 0.41489136 0.5463626 0.60458404 0.6308308 0.2458789 0.25835234 0.108648136 0.41213953 0.55802363 0.60266817 0.6503329 0.6223705 0.17618437 -0.01372733 0.46362185 0.53494656 0.60770166 0.59796584 0.09140366 0.11080599 0.8085766 0.7299372 0.58719265 0.47325498 0.31882727 0.19451016 0.16183092 0.09343376 0.23279287 0.8225789 0.80868506 0.4581622 0.22164747 0.17758785 0.11252732 0.77941716 0.7520449 0.20728335 0.109065376 0.17083755 0.7239324 0.6867859 0.6422145 0.48298916 0.021497697 0.22197857 0.63190347 0.47194725 0.43180585 0.4609364 0.3922736 0.106118836 0.14261095 0.4066338 0.5283102 0.5664065 0.6172908 0.10853146 -0.29491317 -0.39580277 0.16529903 0.5536376 0.61645705 0.6802821 0.6640842 0.10674072 -0.16607627 -0.05032915 -0.014847636 0.105082594 0.27002272 -0.13975362 -0.004149489 -0.05672826 -0.003790155 0.370975 0.40795946 0.3839106 0.08801934 0.32405403 0.29492006 0.22363561 0.23449129 0.23191875 0.2693608 0.45746925 0.2605324 0.48967835 0.7353895 0.73067844 0.49156612 0.42375636 0.43563586 0.48534617 0.5101211 0.5081601 0.49001628 0.41987982 0.46598247 0.48397136 0.47603473 0.30298257 0.32106346 0.33189034 0.67447823 0.048712403 0.40551323 0.48838174 0.48619685 0.45078817 0.40479156 0.25420207 0.29057258 0.30641586 0.2976296 0.21966006 0.035795495 0.030402392 0.35701543 0.30738133 0.1181788 0.4798811 0.26038504 0.12849188 0.4616537 0.5467032 0.56518173 0.5860814 0.24749985 0.2749406 0.58676267 0.5672066 0.24512658 0.58941317 0.5847502 0.1296743 -0.028517582 0.24076617 0.53525 0.5949352 0.58701533 0.67297167 0.5344422 0.47369942 0.31109375 0.17346616 0.03035558 -0.121583186 0.098243386 0.23787186 0.21706057 0.39171204 0.553016 0.8029994 0.74767303 0.33093348 0.21009062 0.078467295 0.10721745 0.82365274 0.06553115 0.7552043 0.06489982 -0.11507888 0.7007493 0.66621953 0.1205897 0.6165761 0.55103016 0.4864544 -0.07619026 0.032461055 0.469068 0.5311085 -0.36599356 0.14154658 0.08826132 0.5705672 0.6085954 0.71161294 0.017774954 0.08418143 0.13286778 0.13478673 0.6053268 0.25784785 0.18111081 -0.023660868 0.35598618 0.16640891 0.1426547 0.37424242 0.31711546 0.3652627 0.31991008 0.2672549 0.16143835 0.18261756 -0.008363731 0.1643342 0.13776042 0.16242982 0.46775347 0.41627696 0.40911895 0.61948144 0.5075883 0.40703738 0.4093295 0.44188765 0.4821145 0.43690342 0.44495574 0.4672557 0.356765 0.4505129 0.37881196 0.4396187 0.46748784 0.46951497 0.42254385 0.2796485 0.33399138 0.34192848 0.30032524 0.3719897 0.33320242 0.23798108 0.18475442 0.1852189 0.26513126 0.22692436 0.22686346 0.2398424 0.28470713 0.00053409906 -0.09252304 0.0057227314 -0.11754562 0.0016730409 0.2898034 0.22406296 0.49126172 0.2957745 0.22852993 0.23122951 0.5438043 0.25400886 0.5544212 0.54727066 0.5629348 0.5741822 0.42959437 0.3422866 0.30473563 0.44921213 0.54634345 0.76184773 0.6705747 0.20330003 0.30398977 0.78082705 0.042971138 0.076446675 0.11565823 0.6945954 0.021584462 0.6031032 0.5978178 0.53220004 0.013156213 0.05040863 0.4780783 0.6657347 0.03952794 0.5808467 0.10460623 0.12471235 0.13491417 0.61333424 0.61566377 0.64310795 0.21994317 0.02133255 0.05720552 0.30276367 0.32015976 0.31902218 0.320439 0.2947123 0.30839092 0.25492275 0.058925927 0.21717712 0.21612525 0.08514807 0.1626234 0.15261686 0.25157285 0.6556138 0.4160571 0.49515328 0.6299145 0.69950366 0.75606966 0.77099204 0.3655417 0.24307337 0.34574145 0.23079298 0.36652517 0.4008538 0.22035602 0.22133096 0.07036282 -0.07982355 0.09695641 0.19511572 0.22237366 0.22982281 0.20258215 -0.05563721 -0.0820885 -0.28644693 -0.23185594 -0.20262891 0.06152262 0.007246986 0.3439226 0.26872876 -0.07138939 -0.11454375 0.48542774 0.5005908 0.376387 0.53826517 0.5510956 0.22290963 0.21819614 0.16549946 0.040983945 0.54668564 -0.00044278428 0.028579041 0.1987678 0.26196796 0.31724608 0.039987683 0.055504575 0.1673311 0.45456922 0.34706777 0.31257087 0.45897236 0.41596484 0.27912855 0.35777375 0.36115044 -0.42963123 0.11517998 0.1293936 0.2474984 0.36784568 0.58417606 0.095436335 0.13125005 0.61705047 0.6315943 0.6461393 0.71618474 0.40024775 0.21546698 0.4184106 0.4250425 0.16346097 -0.038510084 0.3758702 0.39362037 0.21814421 0.09455969 0.0841392 0.20739028 0.110917926 0.45050833 0.20362882 0.32450905 0.6921233 0.45208263 0.5755086 0.6714985 0.7892022 0.7386831 0.721607 0.78459644 0.7952602 0.7024165 0.565117 0.6907404 0.3478529 0.3841198 0.42448923 0.4351848 0.19746415 0.22370039 0.13246612 0.20404941 0.27187115 0.40361542 0.2843891 0.17302082 0.18102373 0.1499393 0.24054253 0.2624094 0.32153106 0.29691887 -0.12509708 -0.15758634 -0.1542607 0.112284474 0.28586143 0.3898409 0.38360658 -0.1787631 0.37610877 0.31959248 0.5384127 0.24004193 0.25766098 0.19306776 0.5744478 0.23724313 0.24617198 0.7180346 0.157823 0.72355783 0.7262348 0.72410804 0.33219528 0.25752234 0.04975708 0.720893 0.7215374 0.3325901 0.38488305 0.36974013 0.35308248 0.32921362 0.1613372 -0.012348547 0.4017362 0.43015355 0.40445828 0.16091207 0.43211368 0.31310457 0.3413899 0.40826163 0.46040592 0.4514534 0.57629746 0.62878764 0.08402707 0.41489494 0.45756394 0.6191263 0.13044724 0.10226427 -0.10115184 0.311938 0.36848354 0.38945007 0.07393016 -0.04825206 0.26853687 0.36346197 0.547043 0.42407373 0.71755046 0.6875725 0.45349097 0.60677826 0.76352715 0.7884078 0.77752924 0.7524351 0.48964038 0.64838755 0.72196376 0.7383792 0.7189543 0.27170086 0.4185105 0.57007444 0.70526946 0.69212806 0.251033 0.28854698 0.4538684 0.5133289 0.4771931 0.43880624 0.15726098 0.54054916 0.14265046 0.2165004 0.4198498 0.10285788 0.13628119 0.35172653 0.4121557 0.29865032 -0.24470139 -0.27172387 -0.08333231 -0.054491177 -0.104536474 0.13275194 0.39936912 0.39717346 -0.25726116 -0.017558351 0.3639651 0.32461166 0.33696708 0.3561718 0.568101 0.36670446 0.29204744 0.36954385 0.272308 0.6327925 0.41775066 0.6578188 0.65422827 0.23021767 0.23968314 0.4313604 0.6142901 0.70244795 0.71264565 0.78123856 0.5790358 0.7248957 0.7549137 0.49791092 -0.21665412 0.3490854 0.61983156 0.6971524 0.7062949 0.7145326 0.7242617 0.3622131 0.16157714 -0.17792271 -0.34622616 -0.22268239 0.6868187 0.6933012 0.36217403 0.35578945 0.31825665 0.24907884 -0.17528763 0.44993556 0.4425943 0.5132593 0.48190868 0.025930787 0.41001928 0.46376306 0.48937833 0.509124 0.07695658 0.13682681 0.3063339 0.12535046 -0.06330787 0.10722012 0.16454215 0.22095376 0.18456498 -0.177236 -0.4313476 0.20980732 0.09607476 0.21116634 0.14664152 0.34573096 0.270177 0.21065156 0.3483192 0.5815492 0.52561903 0.6985209 0.6589556 0.6919365 0.7263634 0.7675419 0.7280959 0.7347746 0.50988764 0.6602311 0.7130748 0.72606725 0.6937636 0.3607939 0.37066042 0.3976051 0.6006061 0.24348952 0.32514942 0.40614057 0.5085811 0.5014119 0.45715243 0.31531549 0.5106745 0.20913257 0.42625684 0.38935232 0.38087332 0.18728477 0.1752727 0.35915047 0.34273624 0.4783232 0.39287433 -0.13077524 -0.12849426 -0.019086942 0.024638735 0.068755046 0.19999735 0.28263214 0.42927748 0.42319924 0.34760588 0.3490066 0.400165 0.53964126 0.5029633 0.37593168 0.4056198 0.3894139 0.6132934 0.6850724 0.7626958 0.8564372 0.6650383 0.06365681 0.8465631 0.9221884 0.6583149 0.62236845 0.20394936 0.84246004 0.90833837 0.56230694 0.2634852 0.4230858 0.5972073 0.70004344 0.7775001 0.512234 0.40623212 0.25209785 0.07294844 0.027923271 0.5017224 0.65329754 0.6636958 0.67919433 0.2742669 0.52019376 0.3162708 0.020662121 0.53428376 0.5320386 0.30217698 0.20988894 0.050415054 0.097246535 0.06433837 0.4763102 0.5299239 0.53426576 0.079145595 0.047746398 0.12806544 0.11413586 0.1299587 0.020245858 0.2410579 0.07848717 0.00065968186 0.25536916 0.16377652 0.15914254 0.368227 -0.122307785 0.42082706 0.3106473 0.505558 0.21670924 0.52826256 0.5621875 0.6398354 0.6898581 0.665802 0.40204608 0.4465658 0.47647604 0.61974454 0.53713393 0.30693075 0.3684946 0.4524176 0.44508624 0.42417756 0.32675207 0.47085232 0.20451832 0.23266803 0.40657556 0.39297715 0.37071592 0.23049907 0.29909095 0.20523258 0.18695977 0.3601112 0.354889 0.508469 0.4993126 0.44814306 0.2689435 0.067617 0.25014052 0.30099565 0.34159535 0.5060434 0.42262536 0.41559684 0.4362104 0.50307345 0.48580998 0.4100297 0.55268264 0.39857405 0.5197739 0.6260846 0.716367 0.60062766 0.6383589 0.77991253 0.88799465 0.68712693 0.68278444 0.3877414 0.99277556 0.69626516 0.70276606 -0.028267868 0.9719853 0.6527276 0.28484806 0.32874328 0.83461 0.91437936 0.5712178 0.5711494 0.42558932 0.34604326 0.27670896 0.45673698 0.5567986 0.6238832 0.6604026 0.29404163 0.48772848 0.30554444 -0.269288 0.1822754 0.5030185 0.5140972 0.24356991 0.5222996 0.09817613 0.13681579 0.11714351 0.27237862 0.068857655 0.08804364 0.30776998 0.17893879 0.13234827 0.35461864 0.22545454 0.22980756 0.20665516 0.17301282 0.45757306 0.5580382 0.65051377 0.6009508 0.6595024 0.5004985 0.52726334 0.55824953 0.39399427 0.37688702 0.41137147 0.55133533 0.53962785 0.31370074 0.3320303 0.34336376 0.3945788 0.396291 0.31889373 0.3072176 0.34382516 0.34336233 0.35535353 0.3491529 0.34386626 0.17767212 0.2856273 -0.0031986833 0.1183099 0.27038604 0.29878783 0.38045353 0.358818 0.17363831 0.18986294 0.21080726 0.33668762 0.49007028 0.43592882 0.27953684 0.37555835 0.27753168 0.18619925 0.16385572 0.3068383 0.51370513 0.4599496 0.13666494 0.09241107 0.4745096 0.5057959 0.51557165 0.63310987 0.42936033 0.3306664 0.44040972 0.48598582 0.61147714 0.74603665 0.6067443 0.523206 -0.03282129 0.80224156 0.9519576 0.708377 0.45256838 0.009588297 1.0 0.7226634 0.3791482 0.06999708 -0.32363877 -0.0008742064 0.9857324 0.694901 0.65528476 0.5312767 0.3656478 0.376178 0.11180984 0.25559592 0.53263986 0.8558662 0.9382487 0.5939151 0.5134389 0.39249703 0.3452982 0.3043668 0.19418365 0.28076944 0.36775953 0.41297507 0.41915008 0.5735223 0.7016305 0.37363482 0.24713856 0.21442915 0.20478186 0.111908585 0.055600643 0.30634817 0.02156848 0.041512985 0.12714459 0.13774773 0.36623746 0.37606227 0.09886426 0.20077693 0.18126313 0.14769787 0.23959251 0.2316717 0.2325297 0.5412277 0.5334569 0.6441693 0.6977769 0.62430346 0.7528397 0.7181907 0.71578467 0.7981529 0.757897 0.78321826 0.34474608 0.34037685 0.3368767 0.3499535 0.4065468 0.44110245 0.23933142 0.26336834 0.28356797 0.28076285 0.3464749 0.33669546 0.43545157 0.34159738 0.3461051 0.3308969 0.32429248 0.20086169 0.27752408 0.21212189 0.31515765 0.44162315 0.16020891 0.21326831 0.24368967 0.31522566 0.36826465 0.22600518 0.12188577 0.28755352 0.40391988 0.35147214 0.2128858 0.43440446 0.3244634 0.06682815 0.5369365 0.6330513 0.66766876 0.7281997 0.11184626 0.544243 0.71206665 0.278734 0.64253545 0.7439643 0.568552 0.59910285 0.6464231 -0.01643376 0.6483939 0.7948529 0.870667 0.63930726 0.6251815 0.51681936 -0.0093898475 0.81768775 0.8809852 0.686512 0.6260494 0.5554379 0.4746082 -0.0048444048 -0.3237499 -0.29021487 -0.13099298 0.81855 0.8998228 0.6112925 0.5601299 0.45617858 0.12095429 0.28025973 0.51661474 0.7152737 0.7987411 0.10766014 0.11065518 0.41015956 0.43621767 0.44580886 0.094702065 0.12449475 0.24271032 0.23467386 -0.28601828 0.12644567 -0.216519 -0.114001065 0.10115818 0.16081311 0.14701404 0.33885813 0.35850376 0.19521269 0.27205074 0.254047 0.46814522 0.260662 0.28341115 0.6601119 0.68481493 0.6616842 0.71679014 0.7862837 0.7974552 0.74751306 0.8312311 0.85286665 0.85780174 0.8437176 0.8071627 0.8137429 0.8242819 0.2301079 0.23797756 0.22050561 0.23028916 0.28847638 0.3372443 0.36293662 0.38729447 0.34971064 0.34821904 0.21721452 0.19246608 0.19628495 0.204579 0.1061334 0.18197742 0.29099643 0.40985888 0.4018566 0.3058145 0.3208247 0.26388717 0.12967256 0.33434504 0.32943586 0.12158688 0.14847481 0.03196722 -0.031042647 0.1376997 0.19751714 0.03969135 0.039914533 0.07775109 0.74722207 0.7530594 0.77661985 0.21077736 0.7011951 0.7563443 0.78711367 0.7839966 0.38302866 0.3122954 0.41717422 0.70140994 0.8430178 0.49945107 0.6380393 0.7331486 0.5722387 0.5203768 0.6942761 0.77308536 0.5786415 0.538395 0.58450633 0.6343355 -0.009587973 -0.27266252 0.5771406 0.6566714 0.76863956 -0.25626853 0.36580208 0.4541091 0.420273 -0.047060575 -0.050790127 0.39625233 0.46046183 0.45580167 0.15320754 0.24841458 0.54681736 0.5227035 0.37000638 0.3353368 0.35332382 -0.04111869 0.3383484 0.4001738 0.40915865 0.34797907 0.34692234 0.33181846 0.35033876 0.36507607 0.35203886 0.7881892 0.8107537 0.77984166 0.75849533 0.8450872 0.87542665 0.8500011 0.82022154 0.89867634 0.8740782 0.8499133 0.35058874 0.37396896 0.3848437 0.15911472 0.14505135 0.13195458 0.2674668 0.31848103 0.388381 0.22981358 0.14212202 0.12890686 0.10364959 0.091995254 0.14368668 0.080004 0.15740627 0.065438315 0.037518583 0.01917842 0.051702477 0.21106447 0.05812779 0.504947 0.78175145 0.794104 0.7991464 0.50693977 0.23111406 0.7402766 0.805231 0.8193969 0.6877414 0.67736673 0.76684415 0.18797319 0.65525126 0.6791464 0.057597406 0.4056108 0.05365876 -0.12587085 0.18965954 0.32922024 0.4342105 0.4697612 0.45710647 0.45778212 0.20473936 0.50838774 -0.026829407 0.52104306 0.1063558 0.03870273 0.4504633 0.3136211 0.0570555 0.13993335 0.440134 0.33943427 0.49458832 0.46518648 0.42614782 0.38001168 0.3