# vtk DataFile Version 2.0
Really cool data
ASCII
DATASET POLYDATA
POINTS 8387 float
21.208488 40.182266 24.782482
21.136759 40.29628 25.423336
21.390013 40.544247 23.79263
20.888103 40.69412 24.897762
20.85707 40.68121 25.355503
21.058876 40.8094 26.046896
21.172033 41.471848 23.96887
20.817142 41.405823 24.841549
20.736938 41.48744 25.53303
20.959099 41.512646 26.164421
21.063679 42.28733 24.832449
20.918186 42.23611 25.536724
21.175987 42.344902 26.197563
21.291954 42.737213 25.030018
21.25068 42.802307 25.626423
22.36966 37.900448 20.926016
22.338068 37.92248 21.58911
22.375866 38.537373 20.709848
22.207321 38.5535 21.493576
22.25313 38.620953 22.434298
22.35392 38.807686 23.50036
22.219143 39.21101 24.025785
22.398691 39.289307 20.460987
22.103193 39.438286 21.493353
21.956106 39.546932 22.55837
21.673584 39.940228 24.636208
21.466562 40.071533 25.459303
21.708485 40.273415 26.015108
22.290424 40.39255 20.80943
22.089552 40.264282 21.397081
21.806353 40.43106 22.65429
21.521116 40.490047 23.987938
21.745964 41.271824 22.959229
21.302835 41.31876 26.497494
21.653696 41.641823 26.712093
22.102125 41.952557 22.772474
21.652458 42.094364 23.651722
21.389996 42.599564 24.505157
21.427277 42.498104 26.460564
21.57464 42.481617 26.64819
22.065748 42.830338 23.862339
21.811703 43.098957 24.567017
21.600296 43.06647 25.597103
21.797075 42.88693 26.366056
23.33464 36.657528 19.604156
23.18293 36.72891 20.588285
22.982668 37.00664 21.48178
23.08172 37.15916 22.227646
23.463078 36.811924 32.38216
23.40253 37.633324 19.133938
23.140518 37.291767 19.692038
22.659386 37.57593 20.612682
22.595116 37.44961 21.421766
22.802317 37.66998 22.539812
23.187817 37.639366 23.144705
23.457565 37.57199 31.911808
23.476498 37.713264 32.594887
23.481976 37.572567 33.2386
22.897396 38.768982 19.956415
22.515276 38.520863 20.398073
22.430233 38.811497 23.631187
22.928366 38.751472 23.879198
23.457233 38.041187 32.300022
22.577873 39.64664 20.269623
22.502718 39.72166 20.383255
22.439825 39.76396 25.201838
22.848074 40.402412 20.117643
22.547161 40.536522 20.481676
22.315361 40.60116 26.402506
23.032307 41.00043 20.270617
22.840708 41.210606 20.725473
22.86551 41.928257 21.83618
22.511335 42.211758 22.773827
22.51585 43.613964 24.220228
22.343384 43.376633 25.259914
22.454544 43.12053 26.300869
22.309538 42.827057 26.614027
22.783634 43.879993 24.722961
22.469446 43.66344 25.245905
24.009062 36.039646 18.871822
23.729961 36.019234 19.584002
23.917599 36.029503 20.778444
24.141031 36.19932 21.619854
24.124681 35.88114 30.995934
24.043673 35.7789 31.699589
23.91343 35.973618 32.287678
24.121107 36.120525 33.425945
24.177485 36.280796 34.005272
24.20504 36.466625 18.193121
23.723331 36.733067 18.746548
23.447824 36.345894 19.57348
23.498549 36.44711 20.536777
23.470442 36.591946 21.506504
23.93596 36.74378 22.422436
23.711115 37.099277 22.825716
24.276402 36.958153 28.906984
24.2547 36.68014 29.358866
23.901354 36.358376 30.710634
23.610653 36.443146 31.687115
23.624403 36.54435 32.309216
23.752018 36.71292 33.491856
24.08595 36.77131 34.155663
24.143154 37.362865 18.18215
23.551329 37.675995 19.01778
23.30665 37.634747 23.103918
24.262117 37.794647 28.670935
23.989515 37.738525 29.498573
23.770025 37.68231 30.432333
23.592627 37.59694 31.535189
23.572018 37.54005 33.48666
23.962603 37.532555 34.15719
24.26736 38.142338 18.212221
24.04476 38.43788 18.793825
24.067844 38.477093 24.114038
24.311295 38.532562 27.918444
24.388783 38.067978 28.25401
23.988695 38.49537 29.694126
23.768248 38.36008 30.738098
23.640402 38.38092 31.896414
23.584509 38.314926 32.72678
23.638762 38.254936 33.409916
23.95415 38.17889 34.019157
23.6246 39.074715 19.510542
24.019234 39.56568 25.466494
24.262836 39.52339 29.989874
24.022877 39.142036 30.526827
23.8879 38.932434 31.423744
23.853153 38.80962 32.50003
24.108574 39.000614 33.160248
23.498823 40.492195 19.80892
23.747322 40.86961 19.871624
23.575272 41.920155 21.06332
24.116066 42.91777 21.944921
23.51863 43.669983 23.498734
23.349674 44.10877 25.640495
24.964312 35.437267 18.846695
24.558022 35.463177 19.405214
24.799835 35.34933 31.528671
24.861988 35.42039 32.44245
25.160124 36.219624 16.929344
25.040075 36.071648 17.348356
24.48939 35.800716 18.622818
24.692848 35.535854 19.297829
24.502275 35.672066 20.403164
24.274508 35.949993 20.895485
24.603046 36.018555 22.157154
25.148647 36.28606 22.897186
25.131046 36.045013 28.953056
24.621632 36.105194 29.592426
24.31778 35.780014 30.94392
24.435993 35.493805 31.345032
24.51206 35.533585 32.391693
24.397858 36.00588 33.77711
24.725784 36.049187 34.16716
24.980413 36.790436 16.92479
24.519693 36.878498 17.58429
24.748276 37.078293 23.361605
25.161446 36.839767 27.306726
24.584572 36.561913 28.625143
24.399172 36.36458 29.306051
24.500032 36.567455 34.42865
24.77594 36.794113 34.706203
24.975067 37.353344 16.859695
24.589573 37.63422 17.380804
24.31786 37.79009 23.563261
24.438042 37.944546 23.8969
25.073776 37.86947 25.798187
24.652735 37.89047 27.194872
24.33843 37.585766 34.4599
24.722548 37.431824 34.662075
25.098642 38.144672 17.049463
24.750027 38.079563 17.60809
24.619713 39.059578 25.426332
24.632818 38.098057 27.35786
24.637968 38.438988 34.296425
24.865757 38.02123 34.61057
24.539324 39.719723 27.698776
24.360474 39.509857 31.143677
24.712011 39.280544 33.019905
24.54389 38.74252 33.972385
24.675787 40.16816 19.375147
24.407234 40.4746 19.585686
25.094671 40.63491 27.103214
24.95578 40.08773 29.38173
24.866009 39.88755 30.706062
24.608425 39.643204 31.251575
24.596094 41.29398 20.149883
24.544582 42.60227 21.616453
24.44715 42.452904 26.342037
24.528599 42.9588 21.916235
24.251492 43.17263 26.289669
25.247631 44.355015 31.961485
25.22875 45.042362 21.228037
24.08104 44.290417 25.515232
24.957073 45.16979 30.885487
24.96401 44.784447 31.722485
24.983843 44.851917 32.44679
25.19815 44.820835 32.908844
25.271023 45.606632 21.021856
24.917706 45.61336 21.55493
24.735416 45.310345 22.409296
25.282328 46.296852 27.897423
24.833675 45.574986 30.840172
24.698214 45.562004 31.6709
24.778994 45.47447 32.40993
25.085901 45.493195 33.018456
25.31298 45.94092 21.17723
25.072527 46.2791 21.806833
24.927254 46.24668 22.416725
25.28544 46.11651 23.602987
24.971134 46.857582 26.965157
24.912865 46.573273 27.674929
24.788992 46.99051 27.996183
25.04647 46.947556 28.94005
25.136787 46.702023 30.213217
24.81546 46.20513 31.550241
25.023235 46.25217 32.404247
25.133 45.98639 32.901047
24.969486 47.486134 26.689419
24.715368 47.65492 27.494314
24.759968 47.49501 28.146215
25.135124 47.55171 29.275919
25.152052 46.904873 31.455904
25.120136 47.92326 26.5798
25.00837 48.158985 27.498142
25.139519 48.298298 28.586422
25.285713 48.22497 29.116043
26.396902 33.244694 33.93676
26.321991 33.452038 25.508005
26.340937 33.792183 26.48982
26.377802 33.69439 33.12013
26.270794 33.693626 34.39891
26.347498 33.937702 34.886135
26.10746 35.059994 17.498648
25.704681 35.34261 18.123194
26.054867 35.37472 19.470041
26.437822 34.97883 23.67743
26.149187 34.420788 25.40306
26.145952 34.364475 26.378048
25.55256 35.38225 30.449492
25.991787 34.467144 34.257633
26.235798 34.541416 34.998535
26.20037 35.918636 16.185604
25.823847 35.72233 16.692602
25.3624 35.69724 17.563162
25.223984 35.546364 19.34809
25.721859 35.523155 21.374802
25.928837 35.92087 25.442642
25.975756 35.954098 26.296759
25.789495 35.842728 27.75862
25.639048 35.883972 28.670626
25.833897 35.616528 29.64275
25.17514 35.65953 30.276108
25.780457 35.444588 34.4661
25.919235 36.589176 16.212578
25.4949 36.572163 16.511272
25.29643 36.464962 23.171007
25.684977 36.52754 25.862263
25.623178 36.601498 26.857935
25.303068 36.577007 34.73366
25.603792 37.399525 16.32864
25.399996 37.478764 16.51968
25.45098 37.542435 34.71834
25.896667 38.01216 16.33535
25.836426 38.390007 16.623825
25.46953 38.501595 34.3535
25.398476 38.068794 34.61697
25.925245 38.787083 16.962013
25.65083 39.04935 17.796936
25.80276 39.462673 18.484962
25.630074 39.44098 32.583233
25.128336 39.042652 33.681763
25.205545 39.031036 33.77954
26.006147 40.405437 30.441408
25.383268 39.633095 31.865255
25.784815 40.82858 20.271254
25.679796 41.284813 27.421932
25.802683 40.977997 28.246023
25.381325 44.33223 31.853153
25.520256 44.28442 32.380226
26.172966 44.339077 33.191486
25.986422 44.448788 20.114492
25.463356 44.72541 21.019455
26.174807 44.775146 29.69319
25.492033 44.67761 33.068092
26.074503 45.02094 33.75527
25.89003 45.34285 20.117582
25.556244 45.555187 20.642483
25.885893 45.760704 24.407793
25.572763 46.302452 26.581469
25.870424 45.827 27.983507
26.140642 45.64567 28.881716
25.530424 45.396603 33.413944
25.99288 45.32247 33.756832
25.695164 46.361507 21.109386
25.39174 46.496548 21.611513
25.459837 46.64945 23.321814
26.38081 46.660046 25.460188
25.432308 46.468685 32.712177
25.663197 46.215027 33.18266
25.636316 46.769672 21.870518
25.636028 46.891922 22.545406
25.711754 47.234142 31.487675
25.798513 46.9635 32.517193
25.844458 46.708504 32.913166
25.872566 48.289703 26.217022
25.39087 48.435104 27.032871
25.636787 48.41561 29.511074
25.55482 48.006306 30.059633
25.618694 48.874958 27.843208
25.930265 49.15204 28.328766
25.90179 48.826702 29.15071
26.404015 51.997704 26.245403
26.304325 52.56564 25.59925
26.150213 52.81999 26.443924
26.12499 53.07278 27.258049
26.23814 53.38257 25.768723
25.923252 53.695168 26.55292
25.806469 53.942524 27.453527
26.012238 53.85932 27.88135
25.776106 54.584774 26.642256
25.683084 54.48412 27.410727
25.950191 54.59077 28.049784
26.254133 55.33049 26.092274
25.842508 55.477634 26.777626
25.744232 55.4129 27.537144
26.014788 55.495823 28.096214
26.121973 56.047962 26.857553
26.035578 56.100563 27.488417
26.138285 56.036892 27.965979
27.16313 32.312946 25.691288
27.114687 32.358643 26.25962
27.062708 32.634693 24.721277
26.678371 32.858204 25.772821
26.83817 32.712036 26.424257
27.050833 32.808647 26.98219
27.189754 32.804012 31.930635
27.08279 32.8208 32.434586
26.861143 32.746838 33.67741
26.949503 32.776474 34.37946
[...]
POINT_DATA 8387
SCALARS features_00 float 1
LOOKUP_TABLE default
0.57941043 0.6523169 0.5267084 0.68335 0.7266364 0.78987736 0.62116975 0.75180566 0.81698734 0.8297123 0.68029654 0.75914526 0.76077294 0.6347743 0.67754143 0.4568528 0.4608212 0.42698056 0.44906324 0.41662598 0.29166186 0.29738683 0.40648463 0.41966504 0.41035897 0.4849042 0.56912315 0.63292706 0.4190644 0.41524953 0.41861343 0.5310688 0.45421138 0.8205316 0.78194845 0.41754174 0.5234004 0.5833155 0.74147487 0.73286414 0.46141762 0.5381315 0.62960994 0.6728972 0.50124645 0.45746648 0.43363714 0.37953386 0.62443775 0.41853458 0.4629019 0.45909566 0.45881212 0.36897284 0.27758396 0.5579763 0.6259738 0.7050865 0.38584128 0.41560304 0.26999187 0.18773723 0.58221674 0.40583116 0.4083321 0.30191705 0.4266019 0.42755616 0.6560466 0.4378162 0.432068 0.3370979 0.37092495 0.46809575 0.5609476 0.59747535 0.62289214 0.50599277 0.5476834 0.4925271 0.49650112 0.41149193 0.33942688 0.3903737 0.47138828 0.56125927 0.6151241 0.6352557 0.4927785 0.49796963 0.5073829 0.45260057 0.39389062 0.3009432 0.28382468 0.3076197 0.33152378 0.4207171 0.54522514 0.61261475 0.6925458 0.71124065 0.45863676 0.41212308 0.2751635 0.3174311 0.39238223 0.4706056 0.5265357 0.73771346 0.78914183 0.41641054 0.34642902 0.12238863 0.24639624 0.279523 0.42451367 0.4720475 0.5344269 0.6325952 0.7548872 0.8216228 0.36134896 -0.048699982 0.38892275 0.44716954 0.4983788 0.59525454 0.72873604 0.42884362 0.41893575 0.3646857 0.2532632 0.3034419 0.5733697 0.35041037 0.4006595 0.33363286 0.4203393 0.4947394 0.4697932 0.43766278 0.38999733 0.38316602 0.3784569 0.28646627 0.20770393 0.2216363 0.28649876 0.36615646 0.3783629 0.4787414 0.56386256 0.54434335 0.5096685 0.49234998 0.22132939 0.124419555 0.24894951 0.2982304 0.6541128 0.6660237 0.5135188 0.49416918 0.21850714 0.1708337 -0.11614524 0.15482096 0.77648413 0.74104345 0.51109046 0.4861748 -0.25074977 0.18245731 0.7635365 0.7413511 0.26874435 0.4443327 0.66365016 0.77258885 0.28739852 0.3576663 0.09053612 0.1839117 0.3131013 0.41718352 0.36397022 0.260642 0.3735872 0.19388434 0.5483484 0.57291025 0.38795474 0.574453 0.6007333 0.6574352 0.69971275 0.69572103 0.44351694 0.45118323 0.4509856 0.43148902 0.6238034 0.7239876 0.73722005 0.7205103 0.4618203 0.49606493 0.52349675 0.48190403 0.58504575 0.5441177 0.6004683 0.50545174 0.4394428 0.66374874 0.65787506 0.67929035 0.5813208 0.62654215 0.6038841 0.45031083 0.5139086 0.5258692 0.5884654 0.5098463 0.45223758 0.62085855 0.38984096 0.3941422 0.4621011 0.621479 0.64685 0.37281626 0.31049055 0.17267501 0.06922968 0.24567011 0.2816763 0.16639113 0.50654715 0.58755463 0.5089015 0.49153692 0.42128304 0.31521523 0.18606038 0.0020236112 -0.019800492 0.028426982 0.15819271 0.14756532 0.25089929 0.45908573 0.5160658 0.5150834 0.1710961 -0.035445802 0.036530532 0.5989934 0.5166459 0.5169612 0.6774478 0.4986847 0.4907287 0.66460407 0.6844845 0.46561718 0.43911618 0.246827 0.46826142 0.6625243 0.6564339 0.13069649 0.37957388 0.1777643 0.033812292 0.027622856 0.539858 0.5579914 0.55667627 0.40149716 0.350959 0.0590571 0.6638348 0.66037047 0.42191654 0.43662283 0.15121695 0.44863996 0.19263244 0.054886613 0.6967125 0.66938454 0.4544101 0.48208204 0.5185442 0.15081742 0.5855044 0.60996115 0.4725155 0.5032395 0.37902248 0.4571786 0.5077059 0.27546248 0.5151442 0.385971 0.3507747 0.48747334 0.43143207 0.38140792 0.43877977 0.46391213 0.5033669 0.60038394 0.5298917 0.6138038 0.7278019 0.7105815 0.74428844 0.8003235 0.8028785 0.67408967 0.8099053 0.86173004 0.8594419 0.80539906 0.8510258 0.8638945 0.4626386 0.47497934 0.3936475 0.44591746 0.46879488 0.46278757 0.42621142 0.48764592 0.6472651 0.74043715 0.7758409 0.4063354 0.008756798 -0.14944625 0.0074795093 0.24610534 0.3063289 0.43261805 0.3899631 0.20350331 0.33994544 0.50276005 0.6733115 0.73034436 0.4782886 0.4606728 0.37446082 0.17889027 0.12074627 -0.1583892 0.24516782 0.09680912 0.67370915 0.48968378 0.4927978 0.62329865 0.49906093 0.40309995 0.49203414 0.59519255 0.4600056 0.4512831 0.42697275 0.5668529 0.4127295 0.3152784 0.1916 0.46231616 0.5832478 0.17218879 0.116604164 0.066156045 -0.064311534 -0.049102593 -0.28752202 0.12907077 0.23335966 0.17819607 -0.31243944 -0.33745742 0.20263425 0.28770357 0.4093737 0.42674962 0.3948407 -0.059235677 -0.11988859 -0.085868835 0.5517181 0.587867 0.302234 0.3853323 0.61521065 0.37195152 0.361491 0.5057044 0.5443518 0.25837553 0.28278732 0.29173958 -0.027860373 0.32278007 0.3893478 -0.09980488 -0.030813843 0.25654918 0.23208302 -0.05684291 0.14801171 0.23718351 0.24769637 0.22856766 0.27113086 0.34872717 0.39064047 0.40487415 0.51671505 0.4434882 0.486633 0.4762187 0.49730358 0.6055154 0.4822688 0.52475154 0.70748615 0.7281975 0.570854 0.8471195 0.75838417 0.6836524 0.7531039 0.83762527 0.8507503 0.8075569 0.83773 0.7529832 0.72685146 0.65856886 0.652852 0.59763515 0.5094223 0.517792 0.53132296 0.49921426 0.4717299 0.42845112 0.39341405 0.3191064 0.31688604 0.3480511 0.22917081 0.24344262 0.12441464 0.1193182 0.25550333 0.40714133 0.46269313 0.46882343 0.4404719 0.44351318 0.5655697 0.7345686 0.8013487 0.7988341 0.07355997 -0.080441326 -0.041654825 0.09056431 0.29665372 0.45426637 0.3304115 0.41385016 0.80070543 0.39022294 0.25520444 -0.09742756 -0.12556799 -0.10491278 0.36064854 -0.1023699 0.22396134 0.76573867 0.75074244 0.41701746 0.36718547 -0.010510899 0.7150743 0.43422866 0.5594536 0.16055574 0.39913663 0.39585158 -0.10142388 0.2610386 0.16753134 0.07672423 -0.3235041 -0.60811085 -0.028350636 -0.084195025 -0.2535265 0.12386494 0.2328176 0.45222634 0.44437182 0.2261383 -0.043430466 0.41579336 0.45054087 0.43085995 0.5409454 0.53762937 0.42512304 0.38046476 0.5607538 0.546339 0.33096305 0.23702408 0.21389681 0.14992046 0.5247674 0.125259 0.053148963 0.08760733 0.2899766 0.38619474 -0.12876219 0.17704612 0.21840356 0.23866643 0.20910782 0.16065232 -0.09961887 0.31713808 0.17537121 0.4142304 0.38690946 0.41190866 0.49482113 0.40390635 0.5751212 0.50350076 0.6679878 0.5518997 0.6657345 0.8249618 0.79436624 0.8040705 0.80181766 0.8144747 0.8712285 0.88392293 0.88099885 0.84064 0.76431346 0.77663875 0.80632794 0.8063161 0.76286244 0.63202083 0.6844135 0.6561403 0.6384475 0.51906556 0.5644389 0.5465298 0.55489874 0.4805938 0.38958248 0.36727244 0.31658107 0.2947678 0.33851516 0.1988113 0.27880502 0.30504173 0.10329534 -0.03497854 0.39725995 0.41639352 0.41707075 0.50996894 0.6491852 0.7379242 0.7643363 0.11058827 0.2328808 0.40112177 0.35074845 0.3739263 0.7674225 0.76594996 0.2229553 0.33482957 0.71374893 0.72822165 0.34941983 0.61915207 0.68555737 0.25700146 0.19410156 0.36554158 0.28834772 0.042664915 0.20509559 0.20219895 0.22745301 -0.014988527 0.29527995 0.28288624 -0.052104168 -0.044094056 -0.5039644 -0.5178325 0.046617143 0.18156604 0.44494724 0.1157365 -0.36460137 0.14288065 0.45049712 0.4708013 0.45066914 0.45179167 0.49874002 0.44439012 0.4455045 0.48721236 0.4148562 0.45285958 0.48348308 0.103488445 -0.086748935 -0.09842614 -0.1462574 -0.20828462 0.36613595 -0.2011503 -0.2572442 0.27135602 0.2995546 0.47811806 0.4914152 -0.31193936 0.10207149 0.1605359 0.25361815 0.5579397 0.038497284 0.5823435 0.5937977 0.35403728 0.1413462 0.34312612 0.32757264 0.36707434 0.5273019 0.53655434 0.7121582 0.76201797 0.81165534 0.829263 0.8259326 0.79684323 0.7705939 0.82506293 0.814004 0.93623745 0.93332446 0.9159515 0.8876804 0.84924155 0.91601807 0.92445326 0.89454794 0.84524405 0.76698726 0.78729045 0.75158864 0.64823973 0.63693583 0.5472585 0.51552993 0.397234 0.38148218 0.33370656 0.3418257 0.28487247 -0.025578484 0.19327913 0.23821938 0.23365578 0.26199904 0.26207876 0.3983419 0.3871059 0.54156286 0.6831727 0.73368776 0.12804171 0.1792983 0.3255595 0.28230268 0.6370022 0.72174186 0.6785036 0.14363767 0.5433642 0.15967542 0.094194874 0.20028618 0.17050062 -0.23793165 -0.052093968 0.2581386 0.3162037 0.33090922 0.2654595 0.021057637 0.35977194 0.36992845 0.22725356 0.21681195 0.42890882 0.48411492 0.4099911 0.28548244 -0.3860656 0.24578077 0.40402693 -0.42053986 0.43562248 0.19470103 0.44234794 0.3962903 0.4286719 0.40308627 0.33490664 0.3347209 0.344366 0.36070958 0.39746028 0.3074198 -0.24227947 -0.27458847 -0.37724227 0.3459373 0.42883065 0.4950083 0.36697626 -0.04008789 0.30938974 0.5570356 0.57187045 0.5049896 0.33129328 -0.2793277 0.11024286 0.6064247 0.62156194 0.6002327 0.5394006 0.34918714 0.19355592 0.3031525 0.6405057 0.61829233 0.56284 0.3252592 0.3212706 0.5049988 0.6952566 0.2782856 0.33238375 0.46001568 0.63978946 0.778022 0.8711666 0.36237496 0.47266248 0.5782846 0.7361432 0.8787869 0.9134604 0.56128633 0.8533077 0.88933146 0.9197638 0.76865697 0.7764432 0.87651926 0.85673815 0.81534445 0.783975 0.8386005 0.8283731 0.9402647 0.9343966 0.91675186 0.8898248 0.9232291 0.8679452 0.79087985 0.7806469 0.75527775 0.5811143 0.61877584 0.49478933 0.48617357 0.37601334 0.4142273 0.27006948 0.19373533 0.24410412 -0.19814576 0.20201075 -0.06309682 0.0711066 0.20988151 0.280465 0.39849484 0.12888302 -0.08561472 0.0010519437 0.39561638 0.5966187 -0.051885083 0.10860183 0.059897467 0.4139557 0.18683943 0.04289639 0.25347826 0.20774443 -0.19407344 0.27997264 0.33431166 0.35623214 0.1643792 0.3669649 0.37534395 0.23651409 0.5199425 0.49752584 0.3120042 0.34294045 0.5082759 0.36561757 0.26747578 0.34787083 0.37442297 0.39589548 0.34295425 0.26212502 0.212872 0.29152554 0.18595633 0.07413766 0.33505863 0.12094998 0.36531377 0.2991539 0.35576493 0.4634804 0.29419303 0.62421036 0.34881157 0.100132965 0.6495335 0.6549792 0.5828111 0.5174859 0.36373574 0.75967205 -0.13453902 -0.1323201 0.86383307 0.22567874 0.46608844 0.52885246 0.9224976 0.65628827 0.76025033 0.8799685 0.9117379 0.8167634 0.83532625 0.8055613 0.7740278 0.80254173 0.8378488 0.86985993 0.8400143 0.8165146 0.91627693 0.85446274 0.8802551 0.8625299 0.82218564 0.6800909 0.79117686 0.7431769 0.6390786 0.5552762 0.51171213 0.41810262 0.8237852 0.814341 0.775581 0.32162958 0.8202692 0.8058207 0.7566842 0.0066207917 0.8038324 0.78814435 -0.10997674 -0.067894876 0.09639984 -0.0994353 -0.20263138 0.121070325 0.114950836 0.22442141 -0.1600109 -0.0050783306 0.15545586 0.12930834 0.25542107 -0.14432195 -0.22560082 0.2350336 -0.14276972 0.13661331 0.013758644 0.31102517 0.23895723 0.30162862 0.34097528 0.30395153 0.15193667 0.35713527 0.3522593 0.1668407 0.37344012 0.39332038 0.22927365 0.4615342 0.31362098 0.4705732 -0.32390994 0.3843414 0.11608943 0.38383424 0.38766307 0.27630144 0.384277 0.30782968 0.29418606 0.28375164 0.21381395 0.18730111 0.28792733 0.10646484 0.3148308 0.027867392 0.3464375 0.20311576 0.3223623 0.63069403 0.43020284 0.64930874 0.6510233 0.655269 0.57550263 0.65853465 0.6659256 0.6609105 0.58911693 0.53938687 0.24743941 0.058535445 -0.075786225 0.71583205 0.64669615 0.6491366 0.6294545 -0.12600376 -0.21262637 0.84360564 0.43211988 0.9240919 0.61501503 0.5797404 0.6043244 0.83824164 0.89669466 0.7754532 0.7486023 0.73606634 0.64670545 0.7441952 0.7985157 0.8269249 0.75530875 0.7867609 0.74533296 0.3715345 0.4954533 0.5031569 0.7885704 0.33472 0.29822713 -0.113366775 0.81268144 0.8095156 0.7569404 0.6555972 0.4633724 -0.0070915595 0.8080982 0.82014346 0.61939794 0.37952274 0.45706373 0.41507939 0.38754618 0.0070871413 0.7430032 0.7857887 0.7017851 0.5019998 0.23721059 0.3617082 0.38822615 0.13410605 -0.01774633 -0.030233495 0.65395874 0.6504582 0.6562351 0.20700654 0.21072643 0.29506993 0.12225544 0.109223366 0.14361559 0.21936512 0.5609435 -0.02814693 -0.10830468 -0.09881375 0.08760668 -0.008032694 -0.027164362 -0.14072958 -0.21678162 -0.24383137 -0.056073174 -0.01426146 0.06534296 0.2810152 0.55758345 0.61760247 0.48616064 0.34741378 0.26377535 0.4133879 0.6173308 0.5541985 0.42944908 0.5072541 0.56723225 0.51316535 0.4201087 0.19820164 0.56426907 0.35954016 0.30303764 0.18814756 0.2297015 0.28207102 0.2876672 0.29864523 0.35353136 0.086033665 0.3708752 0.3836314 0.15689597 0.15639752 0.15763456 0.34981394 0.36479598 0.19637312 -0.17019275 0.19423303 0.19328332 0.26506135 0.2851112 0.040082797 -0.00090430304 0.30330643 -0.004615154 0.3076104 -0.0046534166 0.084204316 0.19324496 0.6124289 0.6153363 0.60006094 0.501442 0.33142895 0.14237961 0.60567415 0.63173187 0.62873006 0.4812738 0.39990607 0.3366105 0.501211 0.6083032 0.6431037 0.58685076 0.41458887 0.4211657 0.37090015 0.30806065 0.235524 0.1497603 0.036948428 -0.03160423 -0.08378019 0.5315508 0.6310393 0.61696285 0.57440406 0.4569748 0.32750887 0.060139257 -0.14503965 -0.1545396 0.7194219 0.5582073 0.5294569 -0.09021711 0.0014447942 0.8370763 0.3400349 0.44044122 0.5898544 0.7103915 0.8056762 0.85116553 0.66590893 0.7322169 0.7899436 0.20150109 0.7034415 0.7596272 0.47645763 0.19103862 0.20209779 -0.07252002 0.14760546 0.21438336 0.7417259 0.74044156 0.6465704 0.43352163 0.391387 0.40580642 0.36411017 0.3359074 0.011561833 0.75610495 0.40177578 0.34949538 0.3017787 -0.061782286 -0.11836277 -0.014605202 0.05991363 0.6897187 0.36223418 0.1938151 -0.032340046 0.21491489 0.27545813 0.5897068 0.59379816 0.13155498 0.16181016 0.13270026 0.19935735 0.2718584 0.23877561 0.5399059 0.5293906 0.49121445 0.43715304 0.06747629 -0.1674947 -0.052094482 0.15838408 0.015078407 0.47353095 0.4427737 -0.19525827 -0.05511056 0.20042315 0.15135746 0.36832386 0.5606288 0.66528046 0.5445585 0.4499848 0.68242645 0.70043594 0.6111852 0.5332201 0.63960564 0.6801505 0.644704 0.63102174 0.5833701 0.6503625 0.65001714 0.47884202 0.66093314 0.6075431 0.54152966 0.04657577 0.17765433 -0.30976444 -0.3077818 0.17868778 0.29562435 0.058388814 0.04220786 0.13610409 -0.005803153 0.14910096 0.15669289 0.16556281 0.12521873 0.16457981 0.16508865 0.17820889 0.2224876 0.12076339 0.09775005 0.2133661 0.2353383 0.67797387 0.6578092 0.08758885 -0.102735296 -0.02483093 0.63250405 0.62974423 0.5919056 0.30374056 0.28418902 0.080775976 0.5789227 0.6019894 -0.1743167 0.1759233 0.26536965 0.5766013 0.35074577 0.28768635 0.16664766 0.16229112 0.11849941 0.05069697 0.5314163 0.5615537 0.5539117 0.5844536 0.38979554 0.29148406 0.30098674 0.042862415 -0.03172359 -0.06663917 0.6365638 0.66018116 0.5183166 0.5476984 0.5003724 0.38661963 0.2148367 0.24852535 0.24636063 -0.009180322 -0.03821622 0.10687022 0.43255284 0.77157897 0.7924616 0.3901232 0.31324884 0.4529697 0.61042255 0.72639716 0.7863059 0.81528115 0.8192082 0.8322712 0.7495167 0.77791727 0.80320966 0.8146931 0.68691826 0.7462969 0.7713795 0.77652997 0.6937585 0.6734974 0.6785989 0.5579823 0.36785138 0.381539 0.38521665 0.41187534 0.50271636 0.4829335 0.16538793 0.31690863 0.33055085 0.41289073 0.4578354 0.6640306 0.62517667 0.3444683 0.32912815 0.16477469 0.14818941 0.17031847 0.2940091 0.35382086 0.436118 0.57936823 0.63064 0.31709704 0.15385385 0.34610718 0.36638945 0.34987032 0.30967396 0.16927084 0.3347953 0.20060906 0.10789576 0.08681232 0.038875043 0.56713104 -0.064140685 0.02312544 0.27809158 0.5473836 0.30152455 0.30377215 0.4848482 -0.061368495 0.26295042 0.21207097 0.45995975 0.37660632 0.3315708 0.15436082 0.3463829 0.40335226 0.56509346 0.68846065 0.43793434 0.72146046 0.72410965 0.6305822 0.7219982 0.68954134 0.63963217 0.68421745 0.707973 0.72496206 0.5828477 0.7027975 0.66390735 0.5624673 0.24532834 -0.29572022 -0.07553919 -0.029581746 -0.15222587 -0.20439717 0.01984624 -0.042870015 0.013167286 0.063170575 -0.100475 0.11533196 0.09442249 0.15367907 -0.020093426 0.14639696 0.14961004 0.70946026 -0.098829195 0.05956295 0.6958762 0.72953486 0.6412202 0.50881493 0.034979373 0.6416999 0.086830705 0.55835056 0.5404589 0.014049873 0.4934107 0.50527877 0.022619236 0.0140096955 0.00059538893 0.47720516 0.24358281 -0.03561378 -0.104511574 -0.034634184 0.031840183 0.60395837 0.49565297 0.18268362 0.20268735 0.23645425 0.011142775 0.17512996 0.21924785 0.08309047 0.56022215 0.70950615 0.7599294 0.42395163 0.30636638 0.23523277 0.10030809 0.73621905 0.75515735 0.82071793 0.8447354 0.8711562 0.71311164 0.77574694 0.8545183 0.86751986 0.5762616 0.64122283 0.7729845 0.46866292 0.4851622 0.47660482 0.46508646 0.5130925 0.5887389 0.42615646 0.44308025 0.45029882 0.4239838 0.41250658 0.44421726 0.4943185 0.52674353 0.44949606 0.30758125 0.43209225 0.45313662 0.34912157 0.40788674 0.14019552 0.099986225 0.024226516 0.47590834 0.47981465 0.117304526 0.28006485 0.08335764 0.13186291 0.4421394 0.45821488 0.35698783 -0.07398072 0.13922721 0.0017448217 0.24395536 0.38284215 0.16310409 0.013328105 0.48568863 -0.013206065 0.050774038 0.45987484 0.2655978 0.27119938 0.478931 0.42706302 0.20946461 0.37013367 0.12550959 0.13161992 0.28568512 0.24725044 0.2198207 0.4562056 0.57656544 0.67695284 0.7395981 0.7525436 0.63350534 0.7614807 0.7492839 0.6751802 0.6065546 0.6873158 0.6440335 0.5527476 0.38239565 0.54295474 0.6223488 0.48948956 -0.09760459 -0.08945209 0.19436464 -0.075510584 -0.07053788 0.031906143 -0.06521063 -0.038897693 -0.014736369 -0.023263678 -0.01446797 -0.004342027 -0.010069538 -0.11427246 -0.058966495 0.0891504 -0.23148297 0.11763352 0.0818342 0.0037029088 -0.022367239 0.6539786 0.71160793 0.61991537 0.5287676 -0.17513591 0.19614798 0.5377252 0.5791154 0.26144284 0.4913354 -0.08053369 0.061942734 0.45699465 -0.095161445 0.47692388 0.21351199 -0.10569298 -0.11971202 -0.10258788 -0.007940095 0.14708507 0.53447217 0.4738136 0.17961937 0.17097744 0.109434724 0.15816122 0.18173164 0.14528787 0.5642501 0.17777099 0.064461425 0.034369856 0.13318223 0.15465863 0.30637598 0.38657612 0.55534494 0.4587061 0.35864633 0.20548455 0.7978898 0.81180894 0.76794744 0.7990063 0.8270886 0.8349162 0.64237374 0.7163849 0.88137174 0.476633 0.50132215 0.6353613 0.4586395 0.47888467 0.49834096 0.4832432 0.44495916 0.5141836 0.44041353 0.38909233 0.42148274 0.42138118 0.4152127 0.37500888 0.2644519 0.33874547 0.28741118 0.43137628 0.43599528 0.3387643 0.32491636 0.27171466 0.14297865 0.31219217 0.06672469 0.47267374 -0.36499774 0.1312273 -0.0910044 -0.05159368 0.06716117 0.45227256 0.16147123 0.0944808 -0.41687387 0.0867473 0.12726603 0.011696588 -0.07459171 0.34751832 0.25843573 -0.010681301 0.05727327 0.4007513 0.21537608 0.39198732 0.15379821 0.181858 0.345105 0.30492127 0.10131643 0.1246454 0.060692012 0.1987709 0.4552138 0.5228642 0.2519417 0.41650516 0.6686136 0.3471673 0.17480682 0.7498535 0.6464417 0.6328442 0.42245445 0.27824867 0.52120876 0.089895666 0.046837844 0.09848195 0.036286663 0.10273633 0.054843098 -0.010503978 0.05603743 -0.009604938 0.65161586 0.62126344 0.5341187 -0.06090284 -0.21137393 0.6336867 0.6395978 -0.22491354 0.6060895 0.5844593 0.54560286 0.4617942 0.0041147843 0.41995132 -0.25609118 -0.18219483 0.26302993 0.59066856 0.6290318 0.22561319 0.36144814 0.524199 0.3561556 0.38806996 0.47264123 0.46391404 0.16826807 0.31397828 0.43471438 -0.0678282 -0.034398906 -0.05054657 0.056564055 0.5087478 0.12739933 -0.09014173 -0.117987804 -0.14045413 -0.11527373 0.099179864 0.58439064 0.11545807 -0.04600323 0.1689373 0.2080534 0.16922376 0.61491585 0.10812478 0.077957004 0.0032593533 0.29219145 0.38338673 0.4373632 0.39996108 0.3529657 0.57803893 0.5163007 0.32036415 0.23938951 0.13655446 0.030352717 0.087653406 0.5096347 0.3925267 0.26343122 0.7867646 0.6710883 0.7504101 0.76808476 0.84913015 0.5828531 0.6265508 0.8681716 0.2758721 0.2828028 0.41519207 0.44190484 0.5167568 0.5225915 0.560303 0.30721563 0.30078596 0.28868514 0.42383778 0.506323 0.47127166 0.45941377 0.4527039 0.3131515 0.32280922 0.3597535 0.315866 0.2777641 0.22321776 0.40846428 0.3903892 0.06236962 0.21002212 0.30283004 0.3481229 0.2485661 0.3954112 0.40431383 0.2888635 -0.19479996 0.12102543 0.16123436 0.2610584 0.34012908 -0.32611862 0.4203342 0.054399937 0.031458825 -0.0021288693 0.23361342 0.42787707 0.22408935 -0.46718177 -0.47294486 -0.10249263 -0.16798505 0.31483018 0.2582813 0.10771026 -0.11865929 0.29129142 0.11142582 0.3128432 0.2597138 0.11954935 0.1610034 0.29288742 0.13156427 0.21847558 0.09010905 -0.011134453 0.06274714 -0.20974216 -0.05361131 0.13601649 -0.09701822 -0.22247046 -0.14037542 0.18181764 0.3620379 0.108171046 -0.09152238 -0.21330307 0.376438 -0.01000464 0.16902481 0.15361938 0.1603513 0.16668978 0.16108336 0.0