# vtk DataFile Version 2.0
Really cool data
ASCII
DATASET POLYDATA
POINTS 3064 float
-18.693287 43.775116 77.789276
-18.737556 43.856407 78.53626
-18.696985 44.039806 78.95614
-18.633463 44.88049 77.1564
-18.855291 44.454903 77.694244
-18.857174 44.472466 78.461296
-18.699133 44.560806 79.076454
-18.650661 44.959427 77.171364
-18.731462 45.19632 77.60301
-18.779102 45.17019 78.433784
-18.664207 45.078033 79.009834
-17.794495 43.16237 77.06328
-18.161959 43.08955 77.78656
-18.168785 43.06808 78.35314
-17.94138 43.13935 78.94859
-18.332256 43.85564 76.98736
-18.505478 43.468777 77.754974
-18.330244 43.856846 79.30051
-18.112415 44.011696 79.66744
-17.918112 44.64043 76.37615
-18.332981 44.48429 76.853546
-18.442 44.54258 79.48935
-18.166557 44.601772 79.73963
-18.311598 45.238426 76.92042
-18.48634 45.562683 77.51752
-18.523197 45.585045 78.51554
-18.374844 45.236214 79.316025
-18.0202 44.987236 79.82013
-17.870308 45.827713 76.97172
-18.17826 45.84386 77.59026
-18.077385 45.9972 78.43666
-18.013283 45.6795 79.26133
-17.356363 42.79456 77.37477
-17.69939 42.807537 78.47306
-16.798437 43.91184 75.68819
-17.360949 43.395588 76.493324
-17.64344 43.774357 79.64666
-16.669804 44.425602 75.482285
-17.766323 44.47782 79.93114
-17.416 45.1455 76.2006
-17.81983 44.977886 79.86442
-17.380325 46.099174 77.18249
-17.740862 46.082256 78.926636
-16.515444 49.507088 75.65839
-16.537006 49.78217 76.11683
-15.5837345 42.76793 74.778206
-16.56471 42.91185 75.99212
-16.954298 43.16507 79.262405
-16.79268 43.42088 79.4581
-16.082602 43.96514 79.87675
-16.374252 44.381283 75.16536
-16.65472 44.754593 79.96962
-16.187782 45.572105 75.2708
-16.352829 45.424217 75.36836
-16.03574 46.570034 79.107635
-16.026794 45.994938 79.84187
-16.18273 46.7046 77.70385
-16.411257 46.734856 78.27444
-15.928211 49.023163 74.91874
-16.000015 48.733456 76.27834
-16.104036 49.56588 74.94179
-16.405743 49.572884 75.58277
-16.396805 49.663223 76.22749
-16.013489 49.57325 77.22405
-15.854419 50.254524 74.89338
-16.284388 50.206467 75.726295
-16.349436 50.17518 76.118866
-15.833028 50.23094 77.35532
-15.682004 50.153664 77.9563
-15.894652 50.673283 75.66336
-15.943261 50.702076 76.14552
-14.928117 40.718296 75.86369
-14.685848 40.87621 76.36564
-14.84926 41.76482 73.92618
-14.93868 41.33578 74.2804
-15.477447 41.82377 76.09234
-14.766058 42.75065 72.532814
-15.625951 43.037586 78.921844
-14.596586 43.151165 72.08449
-15.065736 43.3538 73.64191
-15.326735 44.198795 74.177025
-14.590416 46.160694 70.99562
-14.71443 45.38404 73.61239
-14.593695 45.431892 81.18325
-14.636052 46.822006 70.72225
-14.630672 46.489998 71.39127
-15.142386 46.84657 81.46252
-14.823429 46.763638 81.93658
-14.711827 47.168697 70.879105
-14.591593 47.405853 71.33445
-15.505022 47.437347 76.0758
-15.038862 47.285126 81.497635
-14.854319 47.192986 81.8869
-15.17075 48.407715 74.8039
-14.725373 48.14067 80.56857
-15.522256 49.48966 74.33498
-15.70607 49.740044 74.540276
-15.476232 50.3415 74.737335
-14.831171 50.33364 78.81963
-15.368165 50.925224 75.5034
-15.657872 50.87309 76.119995
-15.277139 50.70965 77.85506
-15.148315 50.789696 78.00803
-13.901652 39.263355 75.07111
-14.063657 39.193924 75.617165
-14.015806 39.121452 76.36457
-13.884664 39.0983 77.617905
-13.803945 39.134224 78.56503
-14.035051 39.632 74.752846
-14.360826 39.561005 75.47923
-14.059894 39.323807 76.699684
-14.145576 39.55075 77.4089
-14.10371 39.61955 78.521324
-13.90948 39.716434 79.15461
-14.013029 40.781315 73.5497
-14.614158 40.798504 74.33737
-14.486396 40.987656 77.198814
-13.978447 41.723675 71.964294
-14.249572 41.659378 72.568535
-14.181698 41.23154 78.21871
-14.119737 42.424507 71.7418
-14.21584 43.031067 79.05121
-13.780613 43.13976 71.34289
-14.438583 43.558506 72.01234
-13.763162 44.14585 81.40243
-13.884517 45.01922 71.210526
-13.949326 45.12302 81.92513
-14.158046 45.826725 70.65923
-14.414868 45.96915 71.51834
-13.933668 45.83716 82.32226
-14.152812 46.517475 70.05525
-14.464094 46.646866 70.435265
-14.402915 46.630398 82.30205
-14.036516 47.415005 69.912315
-14.435801 47.347908 70.3972
-14.514002 47.537113 71.78755
-14.361066 47.8501 70.72529
-14.333915 47.77007 71.61299
-14.703889 48.920513 74.01071
-14.55773 48.9213 79.41136
-14.448958 48.14808 81.470024
-14.093959 47.94463 82.13178
-14.339057 49.49397 79.58411
-14.410366 49.881325 74.18374
-14.676473 51.228462 76.38081
-14.277744 50.880783 78.6482
-13.757993 52.872986 65.56366
-13.684655 52.834583 66.301216
-13.732188 52.827984 77.811905
-13.628845 52.484356 78.30081
-13.674903 53.33563 65.02295
-13.816377 53.286335 65.60511
-13.7809 53.402664 66.12279
-14.01753 53.783253 78.50393
-13.83117 53.62705 79.15445
-13.757586 54.17182 65.72525
-13.629886 54.601757 66.423935
-13.617413 54.453293 67.01542
-13.7484455 54.212124 77.99598
-13.864191 54.28924 78.570076
-13.815731 54.16928 79.073296
-13.594219 55.03133 66.415855
-13.336996 39.185726 74.829575
-13.316221 38.799583 75.68924
-13.157988 38.64735 76.704025
-13.0020685 38.5834 77.59668
-13.343272 38.68957 78.42605
-13.350089 38.927998 79.1221
-12.9528475 39.149544 79.836174
-13.267254 39.449753 74.461075
-13.471745 39.45888 79.57952
-13.1623535 39.485435 79.94533
-12.847286 40.934994 71.20012
-13.108176 40.859478 71.672935
-13.242765 40.635654 72.45462
-13.493844 40.20843 79.75772
-13.107493 41.642452 71.034744
-13.308338 41.428062 71.357414
-13.401329 41.27506 79.69226
-13.061635 42.121643 70.78374
-13.096568 43.905704 81.895996
-13.041026 44.963135 70.50221
-13.563712 45.91581 69.85935
-13.702619 45.310875 82.34079
-13.057751 45.67762 82.73246
-13.492473 46.389523 69.45901
-13.421614 46.54696 82.78089
-13.333806 47.387234 69.0744
-13.623319 47.686478 69.49457
-13.033035 47.448383 82.87394
-13.533764 48.10518 69.75391
-13.263443 48.47047 70.867294
-13.7929535 48.504097 81.745316
-13.451165 47.979603 82.55503
-13.368043 47.917355 82.6236
-12.586127 50.05721 68.270424
-13.338577 49.560482 80.29577
-12.654272 50.51848 67.63818
-13.190519 50.54744 72.54367
-12.919186 51.464703 66.446175
-12.778319 51.611504 67.78412
-12.840004 51.437706 71.65069
-13.235644 51.151638 73.86299
-13.058056 52.99686 64.216095
-13.274707 52.53828 64.7997
-13.5626955 52.427265 65.56534
-13.174955 52.603077 67.077736
-12.681688 52.814655 67.79934
-12.793518 52.333954 72.22572
-12.798995 52.585056 73.32691
-12.837384 52.91568 77.092674
-13.505403 52.835697 79.22766
-12.925504 53.784588 64.20545
-13.305841 53.579082 64.61013
-13.425822 53.746796 67.15002
-12.922906 53.637375 67.76798
-13.269518 53.670162 77.25231
-13.053297 53.7942 79.94596
-12.927574 54.067974 64.20177
-13.297581 54.262486 64.825676
-13.493686 54.334503 65.25877
-13.277527 54.754795 67.476074
-12.7525425 54.205734 68.06426
-12.826664 54.493282 77.32992
-13.461005 54.52399 77.8981
-13.498554 54.484264 79.25185
-13.064452 54.114132 79.931526
-12.829218 54.88393 64.83086
-13.286161 55.20978 65.85045
-13.419694 55.220966 66.5431
-13.174435 55.32015 67.24414
-12.752898 55.088387 67.87689
-13.125775 54.79604 77.95173
-13.406779 54.81456 78.5726
-13.135401 54.897526 79.142525
-12.8161545 55.759617 66.06816
-12.985071 55.78741 66.6354
-12.878904 55.774788 67.14449
-12.368643 38.434723 76.07987
-12.320705 38.33331 76.50198
-12.437787 38.269665 77.32347
-12.350814 38.37535 78.32876
-12.774044 38.99266 74.898865
-12.502162 38.837605 75.47954
-12.58342 38.643303 79.360695
-12.33618 39.00708 80.09527
-11.985832 40.31367 71.15787
-12.211169 40.219738 71.67131
-12.098057 39.99421 72.60357
-12.289463 39.70452 80.59995
-12.217971 40.635868 70.92462
-12.583703 40.564438 71.39673
-12.539215 40.923286 80.53627
-12.03232 40.266216 80.71887
-11.85203 41.711033 70.095436
-12.390393 41.442425 70.52262
-12.386206 42.209545 70.43203
-12.463308 42.764378 81.0119
-11.709018 43.43367 70.302795
-12.548226 44.021053 70.84097
-12.616831 44.092396 82.29464
-12.5051365 44.250744 82.4628
-12.120672 44.709805 82.829735
-11.596987 45.968857 64.04575
-11.681974 46.06406 64.28831
-11.641011 46.215908 65.09119
-12.438517 45.733517 69.17607
-12.601549 45.52476 82.72353
-11.7013235 46.609184 63.603977
-11.857589 46.61896 64.41065
-11.745291 46.541115 65.29145
-12.24575 46.716324 83.08124
-11.640021 46.99198 63.2291
-11.802532 47.339867 63.8755
-12.001261 47.53137 64.49089
-12.074853 47.414482 65.27884
-11.591186 47.74097 66.81484
-12.048698 47.47385 67.914406
-12.44837 47.528473 83.000755
-11.753399 47.941303 63.918827
-11.99892 48.09193 64.743576
-12.093583 48.07168 65.79398
-11.799412 48.495922 66.491615
-12.052799 48.031094 68.18103
-12.607308 48.490726 82.50293
-12.522546 48.00035 82.85301
-12.103535 50.01828 66.44516
-12.4198265 49.647163 68.11308
-12.235347 49.687923 70.51858
-12.287922 49.32321 81.49052
-11.703051 50.987682 63.746334
-12.122613 50.78826 64.9193
-12.411944 50.83715 65.772156
-12.266867 50.517628 69.204994
-12.124853 51.648235 68.73448
-12.177984 51.16743 69.49533
-12.0451355 51.955956 80.21884
-11.817082 50.9276 80.74496
-11.850836 52.64405 63.3035
-11.910441 52.70407 63.449577
-11.982775 52.21235 71.01301
-12.485286 52.472874 74.02123
-11.798392 52.727634 80.79413
-12.105498 53.521988 63.706745
-12.019 53.042854 71.81083
-12.13421 53.15122 72.4097
-11.852844 53.498108 73.149704
-11.6825905 53.15041 74.85151
-12.537702 53.640488 80.33331
-12.018229 53.84264 80.71202
-12.504481 54.331367 64.10187
-12.134115 54.053192 68.49696
-12.130533 54.36858 76.89328
-12.481883 54.348392 80.22729
-11.938144 54.365467 80.63853
-12.179195 54.734524 64.220795
-12.380031 55.098354 64.74754
-12.43743 55.536312 65.355255
-12.3271055 55.129513 68.08858
-12.350062 55.12375 77.85136
-12.36573 55.388424 78.57458
-12.361227 55.26531 79.389755
-12.154304 55.006756 80.0177
-12.509212 55.813297 65.9674
-12.528894 55.995052 66.54897
-12.379675 55.900654 67.334465
-11.954083 55.616657 79.043396
-11.788024 38.254597 76.60464
-11.453263 38.154488 77.29066
-11.5361185 38.335438 78.395424
-11.55945 38.44669 79.394646
-11.8096075 38.610973 79.85967
-11.413097 40.22591 71.08888
-11.328865 39.953876 71.56261
[...]
POINT_DATA 3064
SCALARS features_00 float 1
LOOKUP_TABLE default
0.8298075 0.8452188 0.81800395 0.74186623 0.82267153 0.8431872 0.80213594 0.7426405 0.7841284 0.823122 0.79837674 0.666481 0.7899004 0.8288717 0.80790436 0.70893097 0.8134731 0.78862476 0.75243354 0.5765801 0.68125546 0.77718866 0.7548387 0.67704344 0.75094825 0.80232674 0.77331305 0.73407996 0.6374402 0.7269492 0.7522572 0.7395159 0.63640535 0.8048787 0.3548602 0.5322576 0.7246977 0.31760752 0.71319723 0.49649408 0.71509695 0.6184853 0.7124827 0.6330451 0.6222818 0.18975511 0.29267016 0.6786084 0.64545906 0.51587903 0.23058629 0.6309761 0.19792882 0.24923085 0.49965894 0.4745394 0.49889705 0.5609242 0.5847011 0.54650486 0.63006175 0.6364659 0.608239 0.50921726 0.64372075 0.6383507 0.61393946 0.49782217 0.38572633 0.633522 0.5929189 0.3612292 0.35362422 0.25452408 0.26658848 0.19105367 0.2766708 0.36794302 0.22652279 0.21605128 0.07608472 0.44147867 0.005988233 0.3274665 0.47589403 0.44470012 0.41930366 0.4844884 0.48261228 0.47540292 0.35775054 0.45186317 0.49786645 0.4987838 0.26399216 0.5806973 0.6139499 0.62172705 0.26453766 0.6153077 0.584982 0.4023817 0.36453587 0.3806498 0.3967005 0.4103959 0.43866354 0.48645663 0.36656958 0.40099755 0.4146212 0.4218307 0.46538675 0.4814645 0.24724635 0.29744223 0.36787027 0.32286218 0.29749033 0.37173778 0.29273546 -0.075497776 0.21468145 0.16007364 0.24252565 0.22708738 0.33626473 0.4012171 0.38943598 0.40965748 0.4613547 0.46873826 0.49252737 0.49458832 0.48820946 0.44560736 0.47453743 0.44988623 0.45731997 0.16885823 0.42077485 0.47696826 0.18094356 0.4487143 0.47224838 0.16079636 0.5941301 0.5465429 0.6877456 0.64154387 0.6169406 0.62091875 0.61525595 0.7333787 0.7191701 0.6574482 0.68393743 0.6645769 0.72530186 0.74934345 0.7463137 0.6927676 0.3535145 0.3854798 0.39535874 0.42746705 0.482573 0.5068464 0.5090826 0.31303975 0.49588245 0.48931053 0.44588536 0.4152538 0.3532413 0.44935027 0.3979768 0.3909995 0.3370276 0.36396652 0.2522584 0.16717689 0.3851182 0.3488766 0.3568694 0.4301151 0.45842767 0.3992985 0.4650846 0.4264201 0.4356528 0.35864282 0.3771932 0.43094468 0.42832434 0.1491659 0.10676754 0.15837207 0.21511623 0.32345837 0.18542245 0.2366184 0.2714409 0.5261149 0.55836403 0.546028 0.425645 0.34054053 0.33334872 0.34395692 0.6228852 0.6437096 0.5403789 0.5896762 0.589817 0.5148334 0.6708198 0.64595085 0.5474671 0.6175437 0.6460311 0.6603514 0.5668829 0.6766678 0.72612 0.75065225 0.678221 0.61308986 0.6761702 0.6953228 0.68970025 0.647927 0.72467625 0.75591016 0.7559837 0.67382455 0.6929724 0.69389504 0.33457002 0.33979744 0.38871765 0.46322522 0.31928316 0.3339389 0.5111617 0.50734 0.48141864 0.4640684 0.40712088 0.4520808 0.4799924 0.46151018 0.31124866 0.3729899 0.4682523 0.45824373 0.3960777 0.04304876 0.29853845 0.09666954 0.26434553 0.27168214 0.27607256 0.6354177 0.6228975 0.5684174 0.24414432 0.327289 0.6290138 0.59752345 0.5367632 0.36113092 0.6120055 0.5719904 0.53279287 0.4744608 0.15643878 -0.019035764 0.3661273 0.5043119 0.4431013 0.3001644 0.053673897 -0.08230096 0.31704718 0.35013014 0.07842852 0.0870585 -0.10110803 0.18211287 0.27568 0.25957167 0.24922451 0.15970883 0.049641285 0.05882255 0.33643615 0.10612829 0.3938895 0.400985 0.078080975 0.31203142 0.44552594 0.4567744 0.2300772 0.26660737 0.23892504 0.18524562 0.5562062 0.55305374 0.52427506 0.49096167 0.61664134 0.6379684 0.6012653 0.523543 0.5860439 0.6349335 0.6042736 0.69627166 0.7310598 0.7189924 0.67495227 0.6573838 0.66927767 0.66755736 0.6999055 0.2784566 0.28513288 0.41643482 0.45994207 0.48659682 0.47980562 0.46420062 0.4234969 0.31672484 0.48959213 0.48798075 0.3753737 0.47579706 0.45114058 0.10414621 0.29798472 0.16992722 0.65534925 0.6200652 0.5933802 0.21192054 0.65763885 0.6527382 0.6225842 0.5707668 0.4940998 0.1883246 0.26163018 0.6428596 0.6467114 0.5029409 0.42381138 0.57179993 0.2962823 0.4917922 0.40355843 0.25870377 0.18434143 0.18137741 0.290703 0.27399793 0.066231996 0.3390873 -0.0543153 0.3040156 0.3857434 -0.13185748 0.4620704 0.38678405 0.4459421 0.3146036 0.21523511 0.5227683 0.4119478 0.44717252 0.62354136 0.58744276 0.49266857 0.49355385 0.66730845 0.65503085 0.5948253 0.65758437 0.6732183 0.22568879 0.29055434 0.34425882 0.45725745 0.4445181 0.3290491 0.4856418 0.55738974 0.4733554 0.46435782 0.2615027 0.6175461 0.43529552 0.46594203 0.41092294 0.40177274 0.35559276 0.1320973 0.64613307 0.6189016 0.5382973 0.17428556 0.64652145 0.65409774 0.5474347 0.43838465 0.32367626 0.17888123 0.59210867 0.61734545 0.16324627 0.5222643 0.21545541 0.36487263 0.2568947 0.29798442 0.33391678 0.38622415 0.35313404 -0.04813043 0.48552507 0.36975527 0.09663277 0.5754249 0.5528065 0.4073577 0.41786817 -0.046100777 0.14020991 0.15344231 0.11883107 0.048184022 0.576421 0.59083444 0.5930071 0.6012557 0.2569104 0.09331834 0.6249229 0.6349324 0.542746 0.52454674 0.20261292 0.21989071 0.5686272 0.5307099 0.3158484 0.5319008 0.45472676 0.41632742 0.34808058 0.30477875 -0.03929661 0.18696551 0.43708637 0.48163122 0.6093248 0.3865689 0.52202123 0.6413225 0.7029929 0.44650674 0.4336297 0.6683557 0.7204053 0.4267557 0.6593678 0.45828408 0.556821 0.6177677 0.56835145 0.52393425 0.045834076 0.5950395 0.39575073 0.15067698 0.50989926 0.368236 0.3649153 0.28889877 0.32185793 0.24532206 0.19143698 0.33446193 0.15966737 0.13597812 0.16456948 0.2232188 0.28787738 0.36770043 0.3135614 0.42701957 0.06358819 0.053717837 0.43565488 0.44936085 0.064060725 0.1750107 0.1151349 0.066192344 0.5398224 0.48975885 0.53620434 0.12923084 0.56530595 0.56354153 0.27352303 0.558431 0.5288239 0.4390316 0.3454547 0.2557081 0.5094039 0.45804447 0.37177795 0.2622298 0.69354665 0.77408856 0.80665445 0.66163886 0.77259976 0.82106054 0.7686682 0.80439276 0.5430717 0.52667147 0.49315235 0.4193231 0.48099673 0.2973079 0.22334713 0.47010273 0.58940077 0.65297174 0.1523561 -0.013630284 0.6898247 0.7421551 0.75407165 0.38811615 0.67952377 0.38034806 0.60801995 0.24007055 0.11289724 0.34303138 0.5627356 0.47243476 0.3416073 0.34545183 0.39925063 0.27801186 0.4379524 0.23790862 0.4008159 0.43032855 0.18614563 0.114606895 0.16405289 0.2234062 0.1916562 0.17351404 0.32637435 0.29798993 0.2533163 0.39343125 0.3904716 0.3065165 0.35520744 0.40672642 0.04293187 0.21277216 0.3572507 0.38903308 0.5279359 0.11088029 0.56256247 0.5575725 0.12565812 0.036207654 0.5460466 0.5568784 0.6967052 0.5226488 0.48880875 0.45600176 0.21884501 0.34193605 0.7566933 0.85613 0.64691603 0.8402475 0.87352735 0.5283264 0.64146495 0.74818724 0.8268307 0.8812765 0.7422036 0.787536 0.57283723 0.5856749 0.5902731 0.5841829 0.5478813 0.5325413 0.55288464 0.15388995 0.3952046 0.59405863 0.6661544 0.3571543 0.7121844 0.75095296 0.008297071 0.7544 0.69429386 0.5873854 0.22600101 0.26062948 0.12582697 0.72403526 0.7591368 0.73003924 0.24098183 0.15667552 0.6716007 0.7077706 0.7422473 0.6365876 0.26063478 0.15733361 0.33559084 0.63106465 0.6552575 0.6234374 0.41292596 0.3845423 0.36015537 0.4330469 0.25005296 0.4554333 0.17620549 0.41466528 0.43834925 0.32371584 0.3733269 -0.016886242 0.06244078 0.2957308 0.2564971 0.106688045 0.26532394 0.27530107 -0.19196168 0.2661717 0.07216915 0.10115534 0.5306533 0.5378187 -0.016639113 0.54928994 0.5517827 -0.14135256 0.55137706 0.5878163 0.57621264 0.5215161 0.40394694 0.24422523 0.8717924 0.38387012 0.22529069 0.27509117 0.38778287 0.92451423 0.45356074 0.58130825 0.8744377 0.9301195 0.6066249 0.72824204 0.823035 0.6063817 0.5998509 0.6147046 0.61776674 0.60437185 0.58135426 0.59967905 0.5321882 0.36826098 0.41272175 0.55473316 0.36270034 0.49593374 0.64793473 0.70763123 0.69997376 0.5760547 0.55909526 0.41871786 0.39316407 0.19607937 0.7497861 0.70825183 0.27741438 0.32980233 0.18928613 0.7033501 0.7379327 0.7010411 0.61519736 0.5484371 0.1410815 0.6459679 0.562017 0.12908986 0.37279767 0.5649778 0.36886352 0.2533668 0.4015331 0.52111053 0.43682152 -0.12919995 0.3692488 0.43001515 -0.13939923 0.37332153 0.40081692 0.33060086 0.61234653 0.6072184 0.06739818 0.6674324 0.66489613 0.7058205 0.7050492 0.61125576 0.43656063 -0.26249522 0.16373892 0.68914616 0.6361612 -0.44795787 0.0709 0.40158588 0.0744143 0.46417183 0.02830708 0.106755 0.52271706 0.5885 0.59651804 0.6159159 0.5193618 0.26105395 0.83005583 0.4861575 0.2351349 0.13470201 0.24588075 0.84749985 0.33393022 0.420499 0.5001485 0.8824624 0.5295917 0.67504686 0.8114456 0.6202966 0.61596954 0.6097062 0.5774355 0.5769954 0.5667968 0.5740434 0.54380155 0.3774965 0.43146914 0.35833704 0.38946813 0.39368343 0.20217651 0.55044496 0.5054858 0.5017875 -0.048429936 -0.080580845 0.48043945 0.48843807 0.7000566 0.59065735 0.50096494 0.45118308 0.33296895 0.6586909 0.54642594 0.4586209 0.19528767 0.27304682 0.6055565 0.42408663 -0.012297355 0.36111733 0.54543656 0.3849124 0.19763854 0.28353596 0.37767923 -0.04259753 0.24752355 0.3693192 0.29435042 0.28487226 0.35710248 0.4412945 0.34517723 -0.226295 0.5653254 -0.1172401 0.6329392 0.67051786 0.66658914 0.7005669 0.5788065 0.43801296 0.011534341 -0.027972853 -0.03517095 0.18248764 0.6997716 0.68797624 0.62507915 0.36394322 -0.35064927 0.18213423 0.29060218 0.049694855 0.5031937 0.44987798 0.10353852 0.60621357 0.6252916 0.2655514 0.59366786 0.54406375 0.57482016 0.4618277 0.39828926 0.17457876 0.6337081 0.71162313 0.37671822 0.41559118 0.7356806 0.80032355 0.46355647 0.51187384 0.6061799 0.6668266 0.50245935 0.44667363 0.3806587 0.40456167 0.41356045 0.31063202 0.30436307 0.39047658 0.37611902 0.38403404 0.37894887 0.30769122 0.34736437 0.36097732 0.5224887 0.48805606 0.045660187 0.044566534 0.033780117 0.23420434 0.45791578 0.5202964 0.528707 0.44386947 0.0623307 0.29090267 0.49172854 0.36457583 0.37880132 0.3457205 0.38614327 0.2998463 0.29351667 0.6233902 0.3140026 0.18029678 0.29601753 0.31117678 0.6529039 0.6488077 0.6082448 0.5298776 0.5072576 0.6572983 0.6605368 0.66290885 0.013909574 -0.030862354 0.3453739 0.61757624 0.61668485 -0.014124393 0.18163425 0.32017797 -0.106325485 0.019437283 -0.13066256 0.24840885 -0.19457854 0.5367602 0.6145414 0.06788632 0.083712295 0.62945294 0.6634991 0.09221212 0.042570613 -0.022591867 0.6804529 0.69016504 0.6660806 0.08171694 0.15214057 0.16400251 0.6889452 0.07972701 0.049603447 -0.017760027 -0.014753613 0.06695164 0.46555355 0.5829319 -0.086194344 0.5857655 0.5070759 0.38277042 0.21911117 0.37356222 0.18233901 0.49657774 0.34490332 0.38338536 0.4606482 0.5043511 0.56576604 0.60806566 0.4789484 0.5191515 0.5424453 0.38170606 0.39901292 0.31465456 0.3096769 0.2041444 0.39406002 0.39869845 0.38451612 0.21434882 0.080209434 0.32360005 0.2036335 0.5177782 0.5338111 0.49330425 0.038698867 0.030141314 0.038928147 0.033692926 0.119721234 0.07235901 -0.1398018 0.3571077 0.26045352 0.24800535 0.15471973 0.46162358 0.49045944 0.104035266 0.01468887 0.36103633 0.57622695 0.5766027 0.5297378 0.5147353 0.39306188 0.16455957 0.23180245 0.36403808 0.6195832 0.62947726 0.6037935 0.51029086 0.14135337 -0.0688805 0.28792736 0.30826226 0.616848 0.6335141 0.11735666 0.58001804 0.5890827 0.581253 0.5915514 0.08911273 -0.005604312 0.19545859 0.48122373 0.51483864 0.4313748 0.105125666 0.057811834 -0.017361134 0.12679553 0.08197389 0.0629406 0.050831985 0.11493005 0.20043932 0.14774063 -0.1477768 0.48975074 -0.05729867 0.55465114 0.6173576 0.60326123 0.050040923 -0.02982802 0.1431083 0.64126706 0.5251322 0.38652992 0.67145646 0.6594194 0.35705882 0.34968054 0.0398333 0.24844706 0.13569237 0.33679494 0.31420955 -0.15176237 0.06149982 0.3199963 0.16966067 0.3002686 0.38760528 0.5926529 0.58376586 0.40396202 0.45706075 0.53260624 0.5668991 0.4864077 0.52142966 0.489426 0.37185752 0.3746516 0.40148938 0.5234305 0.5327499 0.50495076 0.28455916 0.3452959 0.35370758 0.50653887 0.5156153 0.48785865 0.41870278 0.008718476 0.1863214 0.20484926 0.019050013 0.037490673 0.08236856 0.12537757 0.30216086 0.45758098 0.32390255 0.41848168 0.43292874 0.40383196 0.08486335 0.15378408 0.13903812 0.4565562 0.39649266 0.26787737 0.006827377 0.034393698 0.08082542 0.21115503 0.29183057 0.38167387 0.40230018 0.3740955 -0.26824647 0.081929594 0.19423869 0.33968443 0.18887728 0.23928156 -0.053559855 0.12227689 -0.19899367 -0.4103661 -0.2650234 0.29912585 0.11081054 0.42282405 0.27645472 0.44375473 0.4259005 0.41187388 0.2883645 0.09678485 0.2842232 0.21332735 0.1655277 0.078828275 0.054166 0.30182052 0.044875864 0.124100834 -0.0061492883 -0.22720897 0.056977566 0.049529158 0.60072315 0.6079721 0.5553602 0.47780782 0.15472634 0.62577033 0.61306965 0.5957062 0.43083408 0.13945416 0.25539595 0.4374971 0.21273094 0.36584002 0.20342663 0.3388105 0.3305439 0.3654415 0.11794621 0.38995433 0.44040757 0.4384191 0.16250682 0.2763492 0.36809367 0.40772617 0.5079223 0.49437022 0.4905092 0.42080313 0.3500562 0.41344273 0.47896904 0.46825224 0.3655714 0.39252108 0.37281996 0.30013627 0.27846414 -0.010263082 0.17569791 0.21519516 0.24417672 0.21249577 0.32102168 0.14603373 0.15095359 0.045513712 0.06333152 0.11815864 0.26783377 0.28122306 0.3589176 0.5494856 0.5020289 0.38250768 0.06333267 0.054564953 0.07841056 0.040213484 0.3798375 0.60534614 0.5741434 0.5154554 0.37330785 -0.17700252 -0.18246083 0.038319632 0.55835164 0.51535004 0.36610925 -0.26291797 -0.16063875 0.20048329 0.34395045 0.33652115 0.3608251 0.3264479 0.2672789 0.23735285 0.17326073 0.02802553 0.31716266 0.25214997 0.206279 -0.0077088177 0.23791784 -0.024883114 -0.26318026 0.06400408 0.3676774 0.40178075 -0.28542942 -0.21370828 0.07166811 0.40074873 0.15409064 0.04317216 0.5362834 0.5341903 0.4311757 0.2952495 0.3141064 0.57477003 0.58043206 0.5281594 0.32932505 0.36514327 0.49998856 0.37495643 0.43201035 0.41592544 0.287834 0.38763738 0.37307742 0.2546275 0.38799012 0.32557163 0.2053907 0.15670288 0.49324858 0.47335917 0.43301672 0.1775636 0.35315466 0.34259322 0.035964634 0.26840544 0.21660236 0.31753916 0.31464624 0.04847155 0.14136215 0.27050772 0.31683755 0.31012523 0.3274399 0.4221425 0.39407852 0.3064678 0.17791559 0.0031731445 0.24323606 0.40014368 0.48024836 0.45385844 0.12912281 0.1355704 0.24126635 0.2522866 0.2788966 0.62537986 0.5823935 0.05482355 0.31853384 0.27100167 0.12683833 0.16158895 0.2605874 0.2552113 0.085032046 0.63203704 0.18335165 0.19003658 0.24596621 0.62795854 0.5961206 -0.27507 0.10916263 0.53535974 0.3361699 -0.27341083 0.31684104 0.2689356 0.2595914 0.32213587 0.35285586 0.23944032 -0.00017996877 -0.1124996 0.25045946 0.32590234 -0.08446966 -0.26477966 -0.23735489 -0.15923819 0.13066363 -0.25122097 0.10492448 -0.20668703 -0.16031672 0.21912351 0.34157485 0.26490244 0.32388532 0.2039932 0.19265962 0.4586652 0.3870548 0.5080725 0.40012783 0.5310384 0.3930943 0.5027927 0.45998278 0.3680721 0.22531626 -0.06850837 0.30489182 0.34793568 0.3939494 0.36653155 0.21607965 0.12987468 0.0745433 0.36908472 0.37375522 0.45750284 0.43734568 0.41860414 0.4787653 0.5135987 0.53623635 0.48835105 0.4319961 0.4404779 0.50540113 0.43528032 0.42341322 0.44311112 0.36442533 0.20644921 0.2160738 0.09184787 0.22230673 0.1993055 0.22896999 0.06233685 0.079053916 0.19154651 0.09536497 0.2607291 0.25174943 0.051107563 0.08892709 0.31291246 0.37877923 0.40260482 0.3495487 0.0812247 0.41084275 0.4722758 0.4377489 0.39752257 0.46666592 0.52391183 0.48647887 0.44559893 0.15764889 0.5995766 0.27891338 0.36750814 0.31564215 0.2753415 0.24372001 0.16002423 0.1704106 0.21019897 0.20430882 0.65603006 0.1166954 0.10640456 0.13479684 0.046856545 0.20132594 0.2857914 0.50242573 0.60753906 0.6767881 0.1443101 0.6045449 0.66030157 0.65266514 0.6225177 0.25258058 0.0601988 0.13934675 0.65897983 0.07998845 0.45010105 -0.32795092 0.3828951 0.37222797 0.27351046 0.1181768 0.09737228 -0.4869152 -0.09196997 0.3859607 0.6165389 0.06814424 -0.27921188 0.07407331 -0.09979734 -0.14036377 -0.102116585 0.4082841 0.65112036 0.6188928 0.4988785 0.18525116 0.13361388 0.19048867 0.16437273 0.12569635 0.07614671 -0.18074386 -0.11579583 0.17646118 0.30633497 0.35812247 0.47748026 0.41900524 0.33086318 0.17470662 0.3927111 0.39682326 0.4691642 0.42948923 0.29221797 0.10970797 -0.22772214 0.38496554 0.07095913 0.023841895 0.25054678 0.2981875 0.33744416 0.31823832 0.3518442 0.3274041 0.35337114 0.34953082 0.39926606 0.8962045 0.90530586 0.89270556 0.8373291 0.4864648 0.4908225 0.47768104 0.48089874 0.89103645 0.8521558 0.7880788 0.7040417 0.47219083 0.4886304 0.47778478 0.47701424 0.84864426 0.79208004 0.7120347 0.61793363 0.41533038 0.4343232 0.46854156 0.38432115 0.6806328 0.3822897 0.32874638 0.29633617 0.33446833 0.38361663 0.30752265 0.24625632 0.3517743 0.24702765 0.2194372 -0.15445814 0.22260557 0.22316083 0.20682213 0.11175865 0.083930075 0.21431062 0.09728527 0.08198133 0.052930027 0.11148129 -0.1287926 0.12812294 0.0776704 0.096177116 0.3365581 0.42476946 0.4853307 0.46384048 0.43440688 0.5376946 0.53897107 0.5189915 0.4649757 0.501208 0.54438096 0.37601846 0.5940769 0.583418 0.2610153 0.42196912 0.35478446 0.2713447 0.14986916 0.60845196 0.6123582 0.08301017 0.15352693 0.10999442 -0.003671214 0.38468552 0.6079377 0.6601503 0.68705976 0.64204013 0.1839495 0.3319743 -0.110036865 -0.07625067 0.028354868 0.09572211 0.6922332 0.6445881 0.5967181 0.488971 0.18500713 -0.20124939 0.14228234 0.7044074 0.05057046 0.58726 0.49902928 -0.20980167 0.430241 0.46638125 -0.25103635 -0.27583963 0.42202812 0.4229184 0.7239034 0.7068337 0.14376098 -0.03974144 0.39398956 0.4086871 0.7585182 0.7267244 0.6472231 0.46862447 0.18661188 0.18303415 0.14440823 0.17574885 0.17952496 -0.08784681 0.14618206 0.2348385 0.76901364 0.73148406 0.6407425 0.504377 0.31636733 0.20466515 0.3109281 0.43719724 0.646942 0.38824162 0.38388854 -0.19417527 0.39893088 -0.17172445 0.39533198 -0.081957355 0.03096953 0.2828584 0.37507433 0.20366569 0.22940393 0.25053692 0.22868839 0.27063864 0.28623378 0.8963436 0.89748526 0.8675431 0.8800485 0.90158784 0.84605944 0.76050454 0.51246905 0.4783979 0.47595328 0.48115808 0.7551279 0.6562214 0.87986124 0.8932946 0.73749506 0.5124166 0.53323615 0.84341204 0.85561275 0.51969606 0.24135907 0.22096555 0.46761394 0.31724882 0.36042267 0.80848193 0.6857984 0.5543611 0.15678282 0.3225062 0.10967071 0.24003696 0.09144636 0.07708715 -0.05715001 0.14830968 0.19187495 0.040673554 -0.008280486 -0.01888097 -0.21670501 0.12492171 -0.3287205 -0.32702017 0.033953056 0.2880239 0.46377623 0.50601864 0.47974902 0.42825475 0.3647145 0.54849946 0.54773855 0.5253467 0.508578 0.51478106 0.5587703 0.419751 0.57258534 0.17743915 0.61185145 0.5920853 0.06207698 0.22379605 0.17148755 0.11361845 -0.0016476028 0.5997987 0.6377164 0.7678062 0.73571694 0.7153598 0.6219702 0.62395704 0.46912453 0.21247905 -0.048677996 0.11303205 0.16390607 0.7366752 0.63583946 0.6060413 -0.11027664 0.71087027 -0.010885598 0.624784 0.24688965 0.01016137 0.5416688 0.5459664 0.6249375 0.4785419 -0.011786809 -0.008737743 0.37313366 0.41226894 0.4385087 0.72970724 -0.0124814585 0.11031904 -0.052236333 0.224372 0.27214557 0.3479489 0.40266672 0.8116995 -0.0010701455 0.087724656 -0.01121068 0.17853579 0.2040196 0.79777896 0.75531185 0.44653046 0.2355193 0.25661802 0.36735776 0.17892867 0.73710895 0.6579801 0.47748202 0.36061943 0.43169162 0.45642138 0.4099867 0.4492948 0.25410962 0.4521807 0.4386912 0.083475396 0.07181421 0.2045779 0.28384596 0.377921 0.39947093 0.86709285 0.8797486 0.83542347 0.45864806 0.46472314 0.69241154 0.86871254 0.872096 0.8696014 0.82771945 0.855256 0.7371861 0.40582964 0.45602664 0.7710898 0.81239355 0.83634365 0.25487578 0.6357894 0.66414595 0.7719239 0.47858804 0.5473118 0.62939453 0.32880774 0.36128402 0.3339669 -0.021413445 0.048612505 0.18798037 -0.009722829 -0.18254292 -0.3850575 0.085215405 0.08335374 -0.06388435 -0.102410614 0.09816674 0.09449999 0.3545152 0.12248939 0.09697727 0.43043667 0.49218953 0.50843775 0.4787546 0.46351278 0.5238642 0.3377877 0.56982744 0.53900516 0.5876206 0.011218876 0.16055086 0.65737796 0.752813 0.7868571 0.78617024 0.6197535 0.6009441 0.10507919 0.13887034 0.26950794 0.23161727 0.285793 0.60375595 0.7711965 0.74673754 0.59258497 -0.1896177 0.15993443 0.056524016 0.3211635 0.35429052 0.6587281 0.6654216 -0.1278798 0.55319345 0.6000253 0.