# vtk DataFile Version 2.0
Really cool data
ASCII
DATASET POLYDATA
POINTS 8983 float
-19.92702 21.106821 68.71232
-19.98427 21.082912 69.35998
-19.846355 21.069202 70.1277
-19.913029 21.772533 67.98938
-20.198616 21.611702 68.63598
-20.255976 21.667418 69.46177
-19.996338 21.630198 70.22794
-19.7386 21.71742 70.69268
-19.963915 22.443687 67.96697
-20.243227 22.459398 68.710625
-20.316092 22.39668 69.371704
-20.057035 22.395344 70.20759
-19.800184 22.470453 70.73227
-19.81441 23.553047 67.74216
-20.043055 23.326166 68.481026
-19.957497 23.49375 69.524826
-19.876793 23.141615 70.28301
-19.688978 24.253586 67.749626
-19.67996 24.532503 68.452034
-19.767685 24.197617 69.42725
-19.721909 23.905107 69.962814
-19.53959 25.134325 68.1348
-18.867184 6.931732 73.70944
-18.839151 6.8943753 74.41659
-18.799387 7.0641384 74.83097
-18.708393 7.505481 73.05056
-18.967558 7.582195 73.62394
-19.019457 7.46415 74.33236
-18.796509 7.5476356 75.02723
-18.90838 8.094802 73.65873
-18.924866 8.357529 74.57743
-18.70027 8.38871 75.19852
-18.733871 9.017015 74.66817
-18.65563 9.087135 75.06692
-18.6826 14.690733 72.5467
-18.698462 14.720334 73.34806
-18.588154 15.12366 72.108894
-18.723822 15.276234 72.61384
-18.706188 15.427022 73.38403
-18.572565 15.285128 74.01964
-18.605202 15.908021 72.91862
-18.601885 15.861805 73.64494
-19.614634 21.103432 68.18271
-19.435167 20.860527 68.61889
-19.322786 20.642748 69.53554
-19.435081 20.894548 70.27424
-19.248451 21.196037 70.77077
-19.150602 21.889627 67.36498
-19.466013 21.60027 67.73948
-19.639507 21.36594 70.61225
-19.40739 21.476532 70.84683
-18.562063 23.03748 60.724552
-18.585629 23.05328 61.32742
-19.221003 22.866634 67.08131
-19.55434 22.730429 67.4958
-19.32279 22.660048 71.16016
-18.58756 23.509228 60.65296
-18.600643 23.469141 61.369446
-19.250051 23.465296 66.96474
-19.5335 23.490677 70.63439
-18.977192 23.277935 71.46889
-18.794348 23.193089 71.69803
-18.538876 24.308126 59.947006
-18.587835 24.08482 60.395508
-18.62999 23.872505 61.155922
-19.122257 24.430218 66.957085
-19.281853 24.849627 67.29508
-19.355532 24.232548 70.07548
-18.7257 24.556486 71.25001
-18.949142 25.293242 67.077126
-19.197268 25.383846 67.48191
-19.283949 25.39239 68.539696
-19.121859 25.431927 69.44101
-18.673222 25.407719 70.94988
-18.810026 26.16141 67.48453
-18.859364 26.28933 68.519104
-18.564379 26.222775 70.33751
-17.77037 5.882052 70.13954
-17.733938 5.619506 70.520805
-17.874311 5.874528 71.55905
-17.87543 5.7138333 72.446106
-18.069496 5.949227 73.511055
-18.0568 5.9460697 74.21684
-17.696737 6.420994 69.973335
-17.866636 6.448836 70.48454
-17.979595 6.602821 71.33353
-18.36341 6.594121 72.81131
-18.55582 6.4555945 73.534325
-18.582922 6.472217 74.239685
-18.22676 6.7186136 75.17449
-17.81289 7.1191297 75.79879
-17.590454 6.8462296 69.90876
-17.709772 7.118817 70.54825
-18.084003 7.7460284 71.81657
-18.447569 7.574653 75.4714
-18.238342 7.8462753 75.68454
-17.986715 8.434516 71.99361
-18.247305 8.427587 72.47392
-18.50076 8.617448 75.50541
-18.13472 8.667656 75.82047
-17.848904 9.075887 72.44367
-18.114964 9.226258 73.48555
-18.33526 9.332379 75.38045
-18.08444 9.152427 75.756516
-18.22361 9.850578 74.6908
-18.165726 9.753114 75.08629
-18.047642 14.178716 71.93496
-18.27488 14.065469 72.56336
-18.235777 14.066977 73.418365
-18.058002 14.191338 74.03625
-17.755835 15.034518 70.75156
-18.296597 14.713791 71.814445
-18.522343 14.445575 72.37828
-18.508854 14.350172 73.39456
-18.268866 14.591574 74.27465
-17.912775 14.983311 75.010185
-17.937212 15.513694 71.02925
-18.22164 15.473878 71.56937
-18.284098 15.67194 74.40851
-17.92496 15.39445 75.02375
-17.752438 16.306845 70.99964
-18.16097 16.183786 71.821304
-18.27466 16.262835 72.63965
-18.429617 16.191378 73.49343
-18.21057 16.060535 74.414505
-17.694654 16.421406 75.04906
-17.649986 18.310432 60.0315
-17.741861 16.767448 71.94389
-17.953873 16.83496 72.811
-17.636106 16.922062 74.96468
-17.69402 18.966763 59.054436
-17.855717 18.807379 59.74823
-17.861572 18.676756 60.339226
-17.71473 18.768337 61.30028
-17.686508 20.196032 57.61759
-17.72206 19.759174 58.9958
-17.967325 19.5775 59.645973
-18.065582 19.459852 60.398994
-17.858725 19.396809 61.307076
-17.649519 19.127766 61.740593
-17.718607 20.78042 56.81368
-17.849491 20.808 57.45305
-17.906178 20.753927 58.34934
-17.917055 20.288696 59.613716
-17.97281 20.428883 60.488228
-17.668976 20.41672 61.395287
-17.97776 21.327955 67.630104
-18.873886 20.689852 68.81007
-18.396675 20.6606 69.4479
-18.595325 21.199413 70.87696
-17.89602 21.449146 56.989693
-17.977852 21.573421 57.30827
-17.908651 21.302525 58.219666
-17.962746 21.744352 60.51681
-18.156843 21.46926 66.899506
-18.712162 21.512175 67.404305
-18.81066 21.383263 71.05108
-17.65114 22.541283 56.693344
-17.79269 22.4507 57.771076
-18.003626 22.613262 58.81773
-18.277534 22.771048 59.76562
-18.37399 22.685251 60.816444
-18.434053 22.811785 61.3112
-18.177467 22.744701 61.978123
-18.739092 22.241985 71.52362
-18.280502 22.789686 71.92701
-17.585262 23.368462 56.681183
-17.838045 23.646318 57.53709
-18.287836 23.734531 58.63526
-18.471977 23.779745 59.454033
-18.45702 23.280546 60.20663
-18.486496 23.712133 61.748222
-18.335577 23.43683 62.051144
-18.071335 23.54825 66.317
-18.649567 23.582142 66.55181
-18.595343 23.882126 71.61723
-18.362099 23.355656 71.95474
-17.618916 24.628817 57.62826
-18.249163 24.376802 58.83169
-18.422293 24.39296 59.59289
-18.36345 24.490587 60.568882
-18.310444 24.249828 61.41187
-18.64618 24.37665 66.59484
-18.510073 24.868483 71.73322
-18.230242 24.49023 72.00092
-17.962603 24.917717 58.796124
-18.039032 24.968475 59.537853
-17.890291 25.036106 60.432087
-18.040535 25.12868 66.26402
-18.262104 25.433653 71.818146
-18.267561 26.0264 71.99941
-17.78401 25.684069 72.77328
-18.243376 26.354557 66.97961
-18.60266 26.612017 68.02953
-18.513487 26.45856 69.60116
-18.312449 26.556173 71.263405
-18.201588 26.513163 72.43857
-17.855947 26.571465 72.969826
-18.148666 26.670118 67.20269
-18.163898 26.889252 67.66033
-18.25459 26.85131 68.48652
-18.169304 27.037195 70.82199
-18.411041 27.640064 71.64389
-18.295324 27.49934 72.393456
-17.67804 27.209085 73.25573
-17.958231 28.307495 70.947685
-18.240526 28.365025 71.69873
-18.1921 28.362188 72.174736
-17.790579 28.314453 72.93731
-17.969368 28.824448 71.606926
-17.8377 28.88205 72.1812
-17.898506 33.178917 66.87755
-17.796389 33.016056 67.1303
-17.85608 33.75238 66.09241
-18.014065 33.668976 66.58194
-18.00558 33.74941 67.49124
-17.619835 33.597042 68.101204
-17.746685 34.461887 65.84911
-18.012674 34.365334 66.43631
-18.02948 34.41115 67.413185
-17.743612 34.46655 68.0194
-17.633738 35.07276 65.85633
-17.810564 35.158337 66.61611
-17.78198 35.16675 67.420616
-17.631907 34.933598 68.078835
-16.60828 0.9429359 66.394615
-16.579231 1.4521435 65.96759
-16.617805 1.3625045 66.55728
-16.621477 1.1564237 66.936615
-17.306387 5.257845 69.92922
-17.225838 5.0646524 70.69342
-17.458813 5.199183 71.04369
-17.330004 5.0147667 72.419716
-17.325043 4.982375 73.40078
-17.17114 5.001126 74.07924
-16.741848 4.9283934 75.018456
-17.413769 5.7559185 69.693245
-17.09206 5.4019313 74.54505
-17.158411 5.7314487 75.175575
-16.636292 6.406693 68.543274
-17.263876 6.7487864 69.37306
-17.347206 6.930035 75.82333
-16.874723 7.168056 68.7941
-17.271143 7.085894 69.60623
-17.470572 7.697564 75.98341
-16.529028 8.417302 68.2783
-16.980104 7.9488683 70.13199
-17.46923 8.537572 76.06365
-17.160917 9.188439 71.900665
-17.62618 9.228975 72.500496
-17.618795 9.43057 75.86577
-17.349865 9.889423 73.645
-16.979492 10.40769 74.5938
-17.258179 9.803596 75.73659
-17.405743 14.121972 71.54813
-17.374207 13.752863 72.47635
-17.752937 13.711221 73.05395
-17.422827 13.833033 74.21656
-17.062042 14.13609 75.27426
-17.348156 14.85373 70.56571
-17.499947 14.863031 75.30374
-16.76344 14.580838 76.16896
-17.258814 15.452062 70.17198
-17.505552 15.478875 70.38023
-17.450031 15.477146 75.4948
-16.996317 15.468787 76.139145
-17.248795 16.092827 70.179245
-17.244986 16.641008 70.668015
-17.091412 16.593927 76.02496
-17.233103 18.132755 59.686184
-17.380701 18.16977 60.421856
-17.19387 18.186821 61.261196
-16.783741 16.927156 70.40179
-17.076694 17.450718 72.190254
-17.43506 17.227367 74.47838
-17.236954 17.337614 75.40712
-16.933088 17.294569 75.95008
-16.588646 18.921076 54.95291
-16.685263 18.720804 55.552643
-16.82649 18.769012 56.589287
-16.97661 18.958994 57.71581
-17.361488 18.664886 58.79696
-17.52932 18.474825 59.36801
-17.59424 18.376701 60.702
-17.519547 18.619854 61.37395
-17.110273 18.83526 62.028343
-17.04027 17.740267 74.30785
-17.001064 17.694168 75.329285
-16.657906 19.506779 55.18632
-16.807556 19.550861 55.626083
-17.16281 19.937191 56.668358
-17.294195 19.530376 57.6725
-17.362816 19.40016 58.30157
-17.304556 19.4241 62.044426
-17.42205 20.877354 56.299934
-17.585596 21.029905 56.357117
-16.927423 20.916098 65.12025
-17.228395 20.924217 65.548485
-17.19099 20.756927 66.23289
-17.741621 21.19036 67.65718
-17.91871 21.098318 70.277145
-17.335365 21.32991 56.146393
-16.89657 21.78577 62.678165
-17.291155 21.450869 64.96771
-17.880835 21.66929 70.982
-17.145926 22.384966 55.905396
-17.402882 22.097866 56.326817
-17.309147 22.41651 64.447174
-17.53547 22.084373 65.30899
-17.588118 22.62479 72.11375
-17.105131 23.502214 55.80981
-17.41356 23.579578 56.320118
-17.554745 23.326855 62.697117
-17.31092 23.608479 65.46322
-17.475246 23.443953 72.36811
-16.586031 24.152134 54.936394
-16.932516 24.397882 55.708687
-17.325108 24.168087 56.54898
-17.603186 24.532026 62.28147
-17.615717 24.599848 66.05769
-17.054417 24.253769 72.334015
-16.723743 25.204258 55.83734
-16.880877 25.143347 56.404995
-17.29608 24.937683 57.50356
-17.06877 25.4213 58.38264
-17.60198 25.386967 59.42713
-17.32296 25.559526 60.09574
-17.412369 25.29285 61.21135
-16.720116 25.101425 65.1649
-17.299307 25.0391 66.02603
-17.144447 25.698675 73.2746
-16.945032 25.652515 58.32857
-16.900995 25.6735 59.812748
-17.394682 26.169477 66.358986
[...]
POINT_DATA 8983
SCALARS features_00 float 1
LOOKUP_TABLE default
0.764616 0.81772566 0.7423203 0.63702065 0.756226 0.7859684 0.6913863 0.61999357 0.6148226 0.70837367 0.7190514 0.6155467 0.54581726 0.5150461 0.5832433 0.52693623 0.50351286 0.481089 0.46692824 0.42683387 0.4104268 0.45008603 0.5477333 0.58901954 0.6115205 0.5331839 0.5928004 0.6251152 0.63360107 0.6353809 0.64362395 0.62893534 0.630293 0.6181519 0.67934716 0.67226595 0.657892 0.672801 0.65360945 0.60798323 0.64166075 0.6061243 0.63698125 0.69269204 0.80141 0.7195825 0.63558507 0.51440084 0.5711739 0.65847766 0.61692643 0.36569935 0.3696619 0.4741647 0.53660035 0.48752224 0.3960023 0.3948599 0.4364394 0.41385093 0.3812474 0.36981678 0.4395066 0.42453986 0.40624693 0.41507787 0.44691336 0.3376255 0.25757807 0.43075424 0.4518503 0.4098841 0.30287814 0.22457948 0.41922453 0.36575633 0.23388557 0.42404968 0.4346093 0.4017973 0.35781485 0.40770727 0.45653716 0.39950484 0.4054247 0.40275747 0.4299054 0.47857404 0.52910435 0.55497366 0.53869295 0.37172136 0.35143924 0.3950492 0.6136949 0.60538733 0.34898633 0.4444452 0.61848074 0.6031531 0.34361967 0.5262754 0.6063952 0.6003231 0.5675454 0.5867549 0.6152322 0.66324264 0.6577189 0.5901775 0.5495774 0.6318426 0.6691848 0.6683911 0.5774287 0.46467015 0.58903027 0.6193649 0.5383035 0.46576956 0.5763444 0.6106881 0.61334765 0.57821524 0.51311654 0.45500362 0.49381167 0.5583317 0.53468215 0.45523798 0.35944024 0.44868785 0.5049399 0.5352428 0.21480198 0.29098505 0.38058293 0.47409612 0.51316637 0.50938344 0.22693421 0.23720464 0.2258409 0.29924965 0.36464185 0.39024997 0.35500056 0.65473473 0.72189283 0.5891849 0.24572736 0.25099027 0.22690213 0.22466652 0.29962784 0.4778372 0.5781883 0.23031168 0.2474256 0.2592271 0.31466287 0.33006752 0.34617603 0.34203297 0.48515722 0.3699131 0.22687997 0.27282625 0.36164087 0.40320033 0.3779423 0.41203904 0.40985543 0.2482686 0.3424277 0.29580763 0.31218165 0.31515515 0.40991014 0.4405632 0.44127446 0.4276398 0.35653597 0.24332887 0.23999795 0.40316868 0.4340912 0.4404337 0.31063333 0.25397035 0.30692035 0.27645317 0.377618 0.3667944 0.2594856 0.31890842 0.37268567 0.3551046 0.35304606 0.3286146 0.3041529 0.33097968 0.47311285 0.4864213 0.36857063 0.42227128 0.50737 0.51832294 0.4697799 0.48316464 0.49412936 0.60059714 0.5624034 0.6071248 0.66066086 0.65221727 0.56665444 0.6140876 0.6908876 0.6984252 0.61721504 0.63320214 0.70882845 0.6811038 0.6037483 0.8524746 0.8447581 0.822029 0.7952477 0.46394438 0.4315102 0.42286164 0.37457103 0.38551316 0.42205355 0.45124117 0.43095297 0.4368477 0.42584676 0.2843952 0.35655951 0.4770729 0.30845663 0.3429746 0.54139245 0.45543724 0.2444615 0.5689279 0.19441499 0.31014794 0.5841438 0.3374335 0.35936552 0.5658147 0.49693334 0.5783688 0.6313672 0.46758038 0.2943472 0.47710374 0.39789033 0.2956914 0.5182396 0.5470122 0.40721 0.3755135 0.5406235 0.5441416 0.41396272 0.45601356 0.50928986 0.51656294 0.505623 0.39657074 0.44963127 0.42824087 0.4020481 0.33559364 0.31924242 0.23990145 0.22356278 0.35420296 0.4275095 0.528208 0.5321296 0.47386432 0.41859463 0.41508272 0.2848519 0.2594604 0.20261474 0.1971349 0.24333388 0.45525765 0.21284047 0.21997109 0.23863545 0.20677781 0.16855362 0.2878741 0.5630389 0.20822152 0.10532674 0.21050394 0.473158 0.19685273 0.22442746 0.06040463 0.20253633 0.3337439 0.22893402 0.22701405 0.3950376 0.0718411 0.23700052 0.31730098 0.29482153 0.25607818 0.41355473 0.21411361 0.17743042 0.33986038 0.30829296 0.30398268 0.3141918 0.38560885 0.37039196 0.3729887 -0.063322395 0.18661346 0.2231887 0.2924166 0.3164719 0.2747728 0.24188682 0.2555313 0.26118213 0.1945366 0.22045363 0.3248627 0.2602713 0.40527493 0.2444911 0.37886858 0.4589101 0.34023908 0.30487674 0.34348667 0.3393538 0.39366078 0.32728672 0.34784013 0.418832 0.39543656 0.39031264 0.41221702 0.4559994 0.45585227 0.4196247 0.48588285 0.5141474 0.5312754 0.4777508 0.6379895 0.63096786 0.6480583 0.5156851 0.5700649 0.5676646 0.53198034 0.7146464 0.6795951 0.6543989 0.6614114 0.5601741 0.61604273 0.68554264 0.6321592 0.56057787 0.49158734 0.7497237 0.7359446 0.69058096 0.5926622 0.62175125 0.6537275 0.5866798 0.49571076 0.7645025 0.75178397 0.72739667 0.9175648 0.8152479 0.77510655 0.9014473 0.89896595 0.843009 0.7461847 0.66268504 0.8463788 0.8447083 0.76103747 0.6079613 0.77815413 0.78027606 0.75495136 0.7129917 0.5931018 0.7340411 0.7244283 0.61966825 0.42479712 0.32410336 0.44556528 0.4998895 0.51083076 0.3570276 0.24687435 0.27028662 0.48152786 0.44420928 0.24828786 0.38444453 0.37868947 0.27206928 0.388615 0.44843942 0.3991115 0.5269775 0.52208245 0.48616838 0.49001002 0.5481391 0.5314793 0.49129748 0.40640655 0.049846414 0.49828464 0.44976544 0.3887302 -0.14212444 0.07803401 -0.02335672 -0.04693836 -0.012354061 0.09807861 0.14795119 0.10360446 0.12850136 0.1970602 0.23314051 0.22502634 0.40061513 0.29224145 0.30869427 0.4356659 0.35449016 0.35153884 0.39728957 0.4923371 0.39526486 0.38239372 0.43037754 0.37572438 0.33499363 0.26017076 0.3389454 0.39981735 0.46591693 0.39118123 0.49138042 0.43670475 0.39088768 0.37801617 0.36158085 0.37080723 0.36153048 0.31433016 0.38784954 0.30005786 0.25605246 0.24610841 0.33874586 0.37877807 0.32346022 0.31456274 0.31062374 0.31605545 0.1993168 0.20788515 0.21001472 0.2110291 0.18500641 0.20635378 0.09030113 0.18327779 0.19699684 0.10622523 0.38800287 0.38861465 -0.11449387 -0.0041184127 -0.13985208 0.17186354 0.32896227 0.44066226 0.447972 0.2524315 0.21020418 0.15840417 0.14655507 0.4140941 0.46107256 0.43754154 0.395854 0.44271594 0.41199344 0.28242224 -0.052415922 0.41864878 0.4312476 0.37640518 0.46647972 0.40669012 0.37047964 0.11173989 0.4492561 0.4060895 0.37749043 0.32673794 0.16216062 -0.122742295 0.41181293 0.3846256 0.3269967 0.260936 0.18868032 0.1491988 0.28269494 0.07727929 0.051145807 0.120402284 0.17998789 0.047513373 0.15041688 0.08268 -0.09054694 0.024438761 0.13476266 0.110680275 0.11883379 -0.055885673 0.0414913 0.037950594 0.0990417 0.121849515 0.21458003 0.18559027 0.2910996 0.22406732 0.14032331 0.09893033 0.21428826 0.271757 0.23794967 0.31023097 0.274056 0.33930033 0.33039394 0.1288046 0.07822828 0.22047472 0.25075564 0.21258494 0.36149967 0.08370462 0.3724744 0.52103305 0.5705322 0.60407007 0.29152423 0.39235318 0.6310853 0.60142565 0.59739083 0.609626 0.65280354 0.66048944 0.4178918 0.42960292 0.72938776 0.69488126 0.67348707 0.6900964 0.4813016 0.45372963 0.38993168 0.76946056 0.76277757 0.6997379 0.69448256 0.7131021 0.54683995 0.58069414 0.592904 0.46077132 0.37594235 0.76665455 0.76852465 0.7573437 0.7272137 0.7150812 0.7538671 0.748659 0.89131093 0.80124366 0.7078824 0.59797287 0.8444074 0.68114394 0.59525347 0.80806345 0.5102102 0.47785568 0.72856724 0.37526214 0.44731408 0.58641785 0.689636 0.2029747 0.24816203 0.4128361 0.48426393 0.51210475 0.49098295 0.46537504 0.16640705 0.25607765 0.27799517 0.28671432 0.3829399 0.48536038 0.1339521 0.018238246 0.55134976 0.5201925 0.06533362 0.47617894 0.4294986 0.17439218 -0.06279306 0.120188795 0.10428421 0.042631418 0.19602838 0.113654606 0.21197315 0.19288991 0.14380828 0.22568864 0.28000727 0.38888413 0.3508308 0.15759045 0.22673276 0.31089926 0.431758 0.40687454 0.3320688 0.22974023 0.14790009 0.27848765 0.31533664 0.41956276 0.44229895 0.025617084 -0.003272294 0.12990607 0.28756705 0.2767531 0.41405052 0.27604356 0.15201055 0.34288415 0.055879228 0.24188955 0.071885884 0.2878093 -0.03219074 0.1877009 0.124433786 -0.24821794 0.094926566 0.10849258 0.1572065 0.10383041 0.14414114 0.20721617 -0.24424297 -0.26441294 -0.2763272 -0.18819216 0.2309265 0.2212455 0.12205617 -0.23319815 0.00070793927 0.30757606 0.31828088 0.2309412 0.33159086 0.4754414 0.44655645 0.30312735 0.26786703 0.49657702 0.48848426 0.19105178 0.26773688 0.49533927 0.47871652 0.45153368 -0.11889255 0.43466294 0.39339232 0.36009294 -0.028561428 -0.2139458 -0.08914276 0.3510288 0.28610665 0.18106447 0.026833154 -0.08790022 -0.05551193 -0.056703337 -0.12585884 -0.049821254 0.16106135 0.1531111 0.1913599 0.03803041 -0.035797108 0.03543149 0.19174695 0.22497556 0.2937137 0.26514363 -0.004812829 -0.029560685 -0.117970236 -0.26084107 -0.23442681 0.088920265 0.30391422 0.33070588 0.3417524 -0.04921736 -0.0742104 0.23572725 0.15475714 0.11506854 0.07596408 0.07648842 0.15201345 0.3234068 0.33771682 0.3440423 0.08453848 0.051371757 -0.15374088 0.029758515 0.028007163 0.036353167 0.17038268 0.22930616 0.43893874 0.40401727 0.46548954 0.106193714 0.15799984 -0.03187325 -0.034402505 -0.03761233 0.34307986 0.4629854 0.5393566 0.57038856 0.17355041 0.1777221 0.0911347 0.6311816 0.1615655 0.10019992 0.112780765 0.7559322 0.7076609 0.06735637 0.17535457 0.7625495 0.739002 0.32286018 0.15672833 0.14775136 0.06026901 0.73910785 0.75398827 0.72039497 0.69959116 0.7133113 0.720446 0.73377216 0.7344925 0.7047392 0.6812316 0.6799209 0.70145035 0.7012016 0.70484 0.72526 0.72974294 0.7043166 0.7376764 0.73872834 0.62262607 0.55547285 0.72623754 0.5342924 0.47932154 0.72960055 0.4183144 0.6474958 0.25027093 0.33028427 0.40867192 0.44973713 -0.014988437 0.2781101 0.3857612 0.4883998 0.48078084 0.18777193 0.029347256 0.44865406 0.03089669 0.36745286 0.2565771 0.1626339 0.1884969 0.14942035 0.32328534 0.02351734 0.5193292 0.46298409 0.3609821 0.104538396 -0.015615657 -0.06101495 0.12359658 0.04588954 0.06541826 0.16277258 0.14452983 0.028910093 0.07530119 0.18906453 0.15654276 0.44765425 0.420662 0.41420394 0.4342153 0.01311801 0.1654156 0.43227726 0.4554958 0.40180779 0.33671284 0.07732019 0.17638583 0.29256666 0.09917114 0.22908977 0.37599224 0.14569247 -0.019484418 0.025178682 0.07675558 0.17890894 0.1857204 0.2967887 0.37650502 0.09003148 0.18780458 0.07418807 0.27352798 -0.016512083 -0.08374172 0.10182781 0.085157 0.17206842 -0.032984518 0.041966062 0.02495222 -0.3096043 -0.4955054 -0.45900622 0.14406914 0.13690615 0.09812182 0.15712489 0.13209338 0.17849278 0.17795627 0.40474087 0.29348382 0.17529619 0.4685771 0.13885635 0.49233326 -0.072403386 -0.020717926 0.0009911656 0.101141445 0.47999865 0.46448 -0.2238043 -0.10833552 -0.07427748 -0.02998808 0.43350828 0.39497107 0.3532442 -0.22260392 -0.16420959 -0.041160412 0.08792029 0.03446108 0.056791995 0.13566618 0.1575324 0.1577323 0.20793232 0.2196826 0.18104836 0.08465685 0.22473598 0.21253079 0.22463578 0.15240996 0.028618008 -0.09701619 0.29562578 0.2006254 0.23871577 0.31055474 0.22744772 0.14483328 -0.021763973 0.3010484 0.33357108 0.10140261 0.07650682 0.0016359687 0.12733936 0.22952351 0.29092285 0.23381153 0.33462197 0.35559338 0.36216635 0.18229723 0.14892197 -0.060854133 -0.04134617 0.02248386 0.038248777 0.082704365 0.12277041 0.19239795 0.40498415 0.22382367 0.17765206 -0.047448646 -0.008786725 0.03603191 0.050412446 0.13930587 0.19656934 0.5823662 0.25165102 0.2130957 0.15293393 0.08040939 0.21993852 0.022164501 0.24865419 0.56949234 0.66282153 0.23559618 0.20403478 0.16256472 0.23275246 0.31690282 0.32241446 0.35675162 0.6581099 0.67589283 -0.06111805 0.18435465 0.07768648 0.0011346843 0.025656 0.13802429 0.273545 0.39090472 0.43606818 0.44177723 0.6855882 0.64616394 0.66055495 0.3369918 0.14854191 0.12934205 0.7028711 0.6962375 0.69901097 0.6628978 0.64645755 0.34740347 0.41757157 0.4036653 0.2595912 0.21849464 0.5289954 0.54130316 0.564438 0.50759476 0.5964238 0.6635688 0.7155677 0.70547676 0.7005826 0.73178655 0.7386884 0.721717 0.73913026 0.74774593 0.6342205 0.62275964 0.65076476 0.5892849 0.51925087 0.5748157 0.47488433 0.41063 0.60565835 0.4743032 0.16775364 0.22765896 0.23828414 0.34963563 0.2934751 0.037647873 0.25090003 0.3566792 0.1194098 -0.034114793 0.41444105 0.34134436 -0.027505474 0.31153867 0.17635998 0.26955146 0.021369949 0.38157192 -0.027333062 0.33117735 0.3208915 0.094461426 0.06353196 -0.114577636 0.09701402 0.077062376 0.008961856 0.117738105 0.39901733 0.4381839 -0.03981922 0.09469022 0.4041874 0.43243024 0.3741571 0.36180377 0.12828857 0.26405355 0.37685996 0.46033856 0.4413225 -0.07762878 0.085839845 0.39345717 0.18914732 0.00046983268 0.11365546 0.43170828 0.056180302 0.30949882 0.0153038 0.04284334 0.38107792 0.21859144 0.09150877 -0.021525577 0.47292644 0.47525457 0.23027995 -0.1383915 0.09799336 0.020062715 -0.024952091 0.476666 0.54329884 0.5366659 0.5273498 0.1959109 -0.280363 -0.18177377 -0.11481022 -0.49191624 -0.18611543 0.061833728 0.06467672 0.56321657 0.5996869 0.5852142 0.55655557 0.10631326 -0.044417273 -0.10150287 -0.22871754 -0.41277033 0.106863685 0.5550751 0.60435754 0.5952908 0.04139047 0.1059876 0.15946564 0.5403106 0.5682342 0.1805988 0.14935142 0.19388938 0.26671302 0.19289516 0.21076314 0.4111846 0.18801525 0.44303745 0.09053849 0.09637571 0.43836388 -0.035706438 0.39715636 0.3813082 0.32219875 0.24101797 0.19103804 0.09228705 0.023825128 0.1539794 0.28797212 0.121360764 0.2028242 0.20993704 0.2152621 0.18728116 0.19874825 0.20199595 0.27688536 0.20537195 0.124511234 0.1751947 0.31059864 0.4061693 0.42609927 0.15861084 0.14990358 0.09902753 0.21284464 0.3726635 0.40829146 -0.14710179 0.025224898 0.37889138 0.39016327 0.19791876 -0.013846785 -0.08039132 0.38776308 0.2782355 0.25436592 0.014211226 0.053548798 0.456155 0.27533838 0.119131364 0.075090304 0.11691823 0.24740571 0.28723726 0.4086684 0.5804158 0.2505166 0.19674435 0.2976594 0.59417397 0.5890722 0.111611485 0.032426953 0.004103613 0.10748665 0.2492187 0.3994347 0.49539393 0.48855695 0.43059206 0.6074232 0.5907181 0.57779455 0.5881307 0.23090763 0.2389611 0.26039258 0.14046286 0.12043036 0.11452049 0.04737521 0.13312596 0.28896374 0.46132627 0.5087423 0.52667403 0.6414205 0.628467 0.6009848 0.59376764 0.63048756 0.35029837 0.22163005 0.27234468 0.26912683 0.2384144 0.68156517 0.62018543 0.34930807 0.21135376 0.25884333 0.2755748 0.4860217 0.4089905 0.6357163 0.67463636 0.61809933 0.68096703 0.74515104 0.735808 0.6559328 0.5387197 0.54030716 0.5888827 0.5835413 0.50633836 0.28156352 0.47365952 0.2085395 0.41824818 0.084553026 0.26290187 0.11968048 0.14833905 0.3059828 0.23642507 0.33122516 0.08274293 0.32917547 -0.039300814 -0.039569773 0.07810134 0.1788877 -0.103694856 0.018538244 0.06800829 0.17046043 -0.08082424 0.13320811 -0.0022185221 0.015718207 0.1580963 -0.09186559 0.23062801 0.033096947 -0.24471892 -0.018076532 -0.006140463 -0.20889363 0.04879106 0.9013442 0.8924048 0.8328822 -0.13089547 -0.03519851 0.3553773 0.36708805 0.84270704 0.8128805 0.75984395 0.69782263 0.3327916 0.266589 0.28901237 0.27642354 0.16185687 0.24975103 0.3689428 0.41830185 0.3222301 -0.13990146 -0.031227186 0.005524099 0.32607028 0.3434935 0.35601524 0.26659185 0.76601815 0.751914 0.694853 0.35356545 0.39887407 0.16428494 0.061847497 0.17244956 0.41220635 0.37400472 -0.0805546 -0.099889636 -0.033512235 0.290705 0.29813567 0.6357247 0.35022604 0.392255 0.3201186 -0.07242246 -0.11125463 -0.070003405 0.25506496 0.34997135 0.36888427 0.37232685 0.23054054 0.1765846 0.32839704 -0.108041406 -0.20798859 0.32711065 0.4033323 0.45835334 0.4524485 0.063609526 0.1617102 -0.01242831 0.33272356 0.45718378 0.5045624 0.49206728 0.46305355 0.015351413 -0.22147703 -0.2824287 -0.2569428 0.045683406 0.4282612 0.48924568 0.5200311 0.075785175 0.07178545 0.45354062 0.49507576 0.5570613 0.5083426 0.10790947 0.05127234 0.13757955 0.48716852 0.5160003 0.17577861 0.1854141 0.18768607 0.5070468 0.5194572 0.51461035 0.17389733 0.5310944 0.55632263 0.5632922 0.3088159 0.15520822 0.18220718 0.5582628 0.5873966 0.5881546 0.37792978 0.02698759 -0.14950934 0.32289085 0.37711215 -0.03281579 0.10153697 0.16254008 0.3544119 0.07401974 0.15782653 0.20617005 0.22412291 0.19860196 0.15100653 -0.012110814 -0.11695157 0.2162385 0.23755766 0.2587349 -0.20768437 0.2337852 0.30395418 0.07010949 0.43744993 0.47779906 0.12647216 0.114586025 0.46814913 0.02001872 0.46447313 0.42018986 0.24288748 0.47975388 0.2650843 0.31177336 0.28710005 0.48009938 0.5239616 0.18719074 0.38734663 0.16883233 0.25350115 0.29674155 0.5033618 0.532325 0.07089701 0.4806882 0.44267827 0.5619795 0.58536917 0.5449153 0.5364422 0.53662425 0.5795987 0.44950187 0.15897019 0.10423751 0.3217342 0.44843617 0.52812445 0.50618804 0.54923594 0.5560434 0.683759 0.65923536 0.61978996 0.25217563 0.19781867 0.71901613 0.7001793 0.21616971 0.24642423 0.73412323 0.70251375 0.63830566 0.40748888 0.31084615 0.1208557 0.6769817 0.48523474 0.39254248 0.46271044 0.40876088 0.6520121 0.656142 0.5648425 0.526679 0.5712277 0.5422972 0.44098324 0.5025115 0.5172056 0.44775158 0.10212766 -0.09266241 0.33144033 0.36096898 0.31357992 0.28965327 0.21726681 0.18049696 0.07202288 0.22443597 0.15391187 0.23813654 0.055294856 0.1402674 0.22873655 0.27850702 0.20106007 0.36004406 0.3327569 0.09806515 0.36090016 0.30139348 0.025937356 0.3000932 0.23862025 -0.094064385 -0.10601737 -0.05596513 0.25659364 0.14023897 -0.46749076 -0.2286644 0.16452289 0.15584219 0.08320006 -0.12597233 -0.5380177 -0.05443122 0.9576282 0.917228 0.8490329 0.40790665 0.37806934 0.22321586 0.1951377 0.11478364 0.07502972 -0.5392035 0.007984702 -0.1258896 0.2950858 0.3441282 0.33218986 0.16882232 0.22262086 0.94151366 0.9271678 0.8143972 0.7135388 0.340082 0.39222372 0.40014848 0.35811052 0.26820606 0.05358088 0.0059436355 -0.004326448 -0.08044816 -0.12536404 -0.11607838 -0.0033380687 0.34121135 0.35808235 0.36622673 0.22333418 0.20135514 0.25594652 0.29857308 0.87196386 0.83877563 0.65003306 0.24459489 0.33510217 0.3238295 0.2886163 0.08446314 0.24726309 -0.07211948 -0.08475812 0.16384372 0.2524734 0.17341688 0.27791592 0.3177616 0.21626157 0.7457738 0.56501985 -0.04242715 -0.06353705 -0.07918582 0.26169783 0.2508387 0.2821723 0.15609138 0.19749242 0.31340888 0.21066672 0.17919739 0.6704515 0.6568946 0.6182722 0.5798658 0.43633184 -0.055817097 0.20386735 -0.08677259 -0.14673406 -0.14131232 0.111370005 0.06795366 0.06598634 0.12659737 0.3468132 0.29632047 0.57699543 0.5342956 0.34167388 -0.13187504 -0.09933327 -0.09638974 -0.2598858 -0.038589396 0.18771926 0.41470236 0.06281923 -0.22401689 -0.039125707 -0.22071438 0.41795254 0.023876905 -0.04539819 0.28904122 0.388791 0.37226257 0.10108024 -0.01931933 0.29905027 0.33105063 0.1927253 0.05048709 0.29052854 0.33217525 0.21181193 0.092551745 0.42983884 0.45350337 0.12416822 0.3902011 0.5295144 0.09595342 0.026613796 0.5516497 0.6000039 0.6343732 0.62020266 -0.0033581182 0.603912 0.6196773 0.6976851 0.23161575 0.037906606 0.13845395 0.22541355 0.5415341 0.24754179 0.2366141 0.17005704 0.05304168 0.03697354 -0.12389772 0.28201517 -0.031763285 -0.16265541 -0.2666894 0.32981223 0.4119134 0.004386492 0.4516303 0.49548674 -0.04859931 0.51085114 -0.04909021 -0.038875528 0.49995178 0.01791343 0.46677065 0.16455871 0.46852732 0.20046505 0.28301096 0.4810629 0.07451397 0.18948817 0.22982201 0.22265446 0.5964727 0.5113406 0.5245133 0.29016677 0.62503266 0.63743854 0.5541587 0.52704096 0.54602283 0.04524079 0.12294376 0.3066064 0.3436514 0.48373783 0.42967552 0.36548233 0.63943195 0.21469916 0.17778757 0.71549773 0.091050245 0.17866598 0.17663747 0.71517897 0.13088018 0.07664762 0.6642705 0.63100016 0.5517657 0.34698611 0.4631416 0.5163591 0.56601614 0.541747 0.5183712 0.47814983 0.483607 0.507684 0.5327081 0.4988268 0.3360426 0.35896385 0.34188083 0.4722656 0.4798441 0.09196181 0.031964127 0.31256306 0.32264704 0.2595343 0.3773868 -0.008192077 0.21998583 0.2760726 0.22728756 0.121097356 0.24316914 0.2632342 0.29816285 0.2018527 0.20225084 0.33592385 0.15337151 0.3698546 0.01966967 0.348368 -0.017678501 0.32183397 0.27688795 -0.08668492 -0.18474674 0.8511237 0.822947 0.20685501 0.22617452 0.26703164 0.0948112 0.14131054 0.18272865 0.94930273 0.898502 0.86125827 0.7985948 0.730397 0.369761 0.4030379 0.3977884 0.30819225 0.012544826 -0.113187626 0.30221224 0.1898637 0.14518781 0.21455047 0.96878946 0.6536405 0.5612698 0.25490278 0.33884466 0.24832189 -0.18496418 0.23518711 0.912953 0.4539642 0.12541161 0.20722136 0.7331321 0.3846526 0.20497513 0.17925358 0.121310726 0.6051681 -0.042503566 -0.06353006 0.013420839 0.20175096 0.5355129 0.48336706 -0.27407506 -0.1667039 -0.10213271 -0.03495983 0.36319995 0.30252498 0.28096735 0.14985134 -0.39779997 0.3