# vtk DataFile Version 2.0
Really cool data
ASCII
DATASET POLYDATA
POINTS 6849 float
10.422773 50.646473 -1.2793852
10.438979 50.532726 -0.8436816
10.408064 50.95362 -1.2379385
11.21792 49.36659 -1.3220285
10.96949 49.937218 -2.0373254
10.836291 49.775696 -1.3852887
10.806103 49.912197 -0.67164373
11.206122 50.54649 -2.6765804
10.851076 50.548615 -2.2043924
10.525366 50.440712 -1.4553237
10.567807 50.52995 -0.57512236
10.860212 50.509514 -0.09693734
11.161245 51.000954 -2.668593
10.903345 51.370975 -2.134396
10.629818 51.29646 -1.492437
10.630964 51.244038 -0.5463737
10.928609 51.360832 0.05501342
11.163316 52.18267 -1.3273659
11.192572 52.326954 -0.43564987
11.383655 52.332005 0.14668377
11.335596 52.736828 -0.76073
11.335606 55.099266 12.6231985
11.304631 55.62193 12.018648
11.171697 55.600685 12.546631
11.29626 55.599327 13.2379875
11.289814 56.277058 12.072961
11.20844 56.31625 12.5271225
11.235879 56.20068 13.137706
11.28512 58.20749 17.398027
11.220392 58.903114 16.696148
10.935628 58.66018 17.733555
10.948857 58.740208 18.293182
11.287294 58.74669 19.304909
11.386737 58.998173 20.096857
11.299317 59.60674 16.298931
10.97515 59.50273 16.829813
10.724509 59.46444 17.57342
10.722141 59.391766 18.16643
11.081517 60.46016 16.830397
10.846002 60.340168 17.510715
10.93177 60.401108 18.835735
11.132724 60.29746 19.46143
11.2881365 60.345974 20.196665
11.170654 60.956757 16.959627
11.136179 61.04754 17.469578
11.092249 60.890976 18.579445
11.304387 61.05401 19.020653
11.888222 49.272213 -2.0001998
11.614935 49.199 -1.4124521
11.645836 49.23517 -0.8397422
12.036787 49.84199 -2.6887603
11.563768 49.693146 -2.3009098
11.468207 49.529015 -0.44596243
11.763024 49.760838 0.08340171
11.693309 50.52799 -2.8548906
12.007799 50.71772 0.9765595
11.881071 51.37298 -2.935726
11.328388 51.54746 -2.5604281
11.730278 51.392067 0.9649223
11.567442 51.80495 -2.6872816
11.646074 51.991974 -2.4860704
11.432837 52.45772 -1.4988971
11.756222 52.56727 0.5843965
11.738987 52.110085 0.9997703
12.464294 52.911736 2.052007
12.47881 52.766876 3.272537
11.845507 52.974705 -1.1218052
11.767245 53.13153 -0.4593038
11.494959 52.74704 -0.037649736
12.224587 52.937172 1.49682
12.488213 53.42552 2.6524308
12.444008 53.422707 3.2995903
12.212461 54.27497 11.994571
12.034611 54.239826 12.689439
12.251978 54.21337 12.929531
11.7825985 54.883743 11.8045635
11.68735 54.73589 12.510944
11.451864 54.951298 12.991709
12.329138 55.251507 17.078094
12.063774 55.81982 11.130282
11.61291 55.6112 11.557865
11.402505 55.411213 13.333574
11.805103 55.40696 13.741143
12.164312 55.877483 15.704562
12.227404 55.549698 16.73557
12.244506 55.689842 17.21969
12.346847 55.936848 17.723507
11.890021 56.3312 11.300278
11.595087 56.307114 11.605209
11.420496 56.634605 12.163733
11.52367 56.58911 13.202436
12.382525 56.445293 14.966786
12.025784 56.60429 17.275604
12.306371 57.155144 11.203719
11.892023 57.07206 11.752663
11.711822 57.13488 12.346431
11.692434 56.789948 13.272496
11.912558 57.07764 15.741135
11.780058 57.559788 16.487953
11.695611 57.767654 17.866735
11.981859 58.35853 19.008968
11.483248 58.91097 16.205196
11.850748 58.719063 20.360518
11.73219 59.17384 20.836601
11.555043 59.562325 16.081043
11.433193 59.26009 20.500334
11.644804 59.76691 20.996561
11.654698 60.28288 16.142303
11.377333 60.348736 16.37831
11.588868 60.779224 20.581877
11.833169 60.345284 21.0608
11.860831 60.91264 16.183863
11.677882 61.230072 16.707012
11.530851 61.47972 17.383917
11.586985 61.502773 18.411175
11.680239 61.37731 19.664547
11.888153 61.44373 20.369698
12.042596 60.86734 21.234972
11.703083 61.718067 17.86179
11.877702 61.763515 18.400644
12.213594 61.880714 19.846079
12.119542 61.809948 20.162657
12.297788 49.15582 -1.9604902
12.491059 49.022057 -1.4960407
12.688226 49.052258 -0.60892504
12.229896 49.975883 -2.7652495
12.583757 49.49243 -2.4392247
12.552004 49.675777 0.35135698
12.190746 50.48911 -2.9879956
12.462357 50.656475 1.2616454
12.150176 51.531754 -2.9933066
13.005313 51.731506 2.3175097
13.048329 52.008724 3.4790926
13.013806 52.197105 3.9261968
12.551901 52.262222 -2.7217433
12.637695 52.37993 -2.4664996
12.634383 52.720676 3.614209
12.989698 52.73478 4.3523045
12.979528 53.135372 12.826762
13.18853 53.13858 13.296762
12.866544 52.84753 -2.117488
13.053584 53.569298 -1.4835994
12.620054 53.460415 0.8567741
12.553222 53.55538 2.3418705
12.588696 53.44658 3.6339357
12.800195 53.322838 4.162627
13.066623 53.550533 11.616969
12.813803 53.418156 12.836675
12.671292 53.804237 13.424839
13.228431 54.008938 14.278691
13.095661 54.222336 -0.29773822
12.99627 54.623077 0.7637243
12.898741 54.41867 1.8576244
12.799231 54.310776 2.6868718
12.809145 54.19222 3.4222167
12.961552 54.271492 3.8594995
12.974134 54.593597 10.902066
12.979994 54.73781 15.430952
12.598742 55.089752 16.720558
12.853829 55.012123 17.260172
13.171605 55.004864 17.731352
13.146586 54.9756 24.654272
13.090477 54.99847 25.585758
13.133882 55.10394 26.026001
13.352533 55.76187 -0.19499627
13.237087 55.41005 0.38677755
13.262162 55.205 1.7765223
13.305003 55.13895 2.6473658
13.265373 55.039753 3.110575
12.498176 55.730736 10.814306
12.627486 55.43303 15.34422
12.515613 55.43443 17.517403
12.388557 55.997448 17.735483
13.216434 55.616814 23.13488
13.019442 55.648922 23.567835
12.835011 55.601917 24.46083
12.763972 55.66585 25.417465
13.010047 55.614906 26.176226
13.380892 55.965298 0.5541206
12.5032215 56.571194 10.761171
12.977308 56.943024 18.170763
12.941503 56.200603 23.717607
12.820585 56.362972 24.598324
12.800672 56.25979 25.53159
13.062321 56.352608 26.12677
12.779938 57.188816 10.828058
12.435276 57.502407 11.456794
12.842043 57.456722 14.812889
12.382704 57.969425 19.138077
13.293576 57.22063 24.80863
13.102913 56.934387 25.58348
13.169514 56.79012 26.06255
13.147826 58.062298 11.046441
13.03206 58.241528 11.578459
12.944988 58.260487 14.004152
12.281727 58.479244 20.450245
12.460129 58.958084 21.178934
13.347363 57.876602 24.67413
13.261929 59.76828 12.913522
12.942986 59.66096 14.035692
12.9601345 59.684006 21.903124
13.27554 60.477413 12.906538
13.105688 60.091137 13.410286
13.255257 60.45467 14.388067
13.0813465 60.19499 22.283075
13.348062 60.892536 13.043583
13.323992 61.036846 13.420181
12.878772 61.256912 15.772374
13.004219 61.44095 21.649067
13.222264 61.402466 22.245737
13.140568 62.189163 15.8154545
12.766295 61.981567 16.60086
12.620405 62.07325 17.882711
12.459722 62.05712 18.490446
12.502229 62.04661 20.008204
13.317147 61.788643 21.404884
14.320047 45.229336 12.323471
14.388871 44.94787 13.205929
14.195474 45.85809 11.887509
14.042044 45.770504 12.556288
14.147966 45.603252 13.553633
14.318152 45.596508 14.239229
14.314936 45.828396 14.941759
14.223479 46.98891 9.676859
14.272504 46.619858 10.680886
14.151599 46.36684 11.629478
13.88203 46.61384 12.528207
13.964608 46.671104 13.276775
14.219524 46.504616 14.53085
14.317907 46.331184 15.047821
14.298731 47.44987 9.012183
14.080936 47.573704 9.520189
14.045084 47.56736 10.262842
14.229462 47.463787 11.342545
13.927828 47.002785 12.735233
14.130125 47.090992 13.322387
14.187338 47.051178 14.28508
13.544309 49.196575 -1.8823634
13.821959 48.949482 -0.6379985
13.497092 49.20629 -0.019610673
14.268966 48.213997 9.02751
14.127954 48.32041 9.66547
14.262793 48.362217 10.546841
14.444403 48.963333 13.340405
13.542055 49.687057 -2.3281744
13.421315 49.536278 0.42188662
13.545074 49.899822 0.77397126
14.341706 50.016953 12.971031
14.428992 49.326332 13.489528
14.356084 49.5368 14.265454
14.295771 49.658993 15.116664
14.269718 50.239323 16.317686
14.457628 50.651054 -7.794069
14.44407 50.748203 12.666819
14.169413 50.87323 13.575061
14.029781 50.93158 14.728823
13.850156 50.759655 15.514083
14.150007 50.492374 16.324505
14.211046 50.620712 16.7095
14.305793 51.729504 -4.4990654
13.647577 51.98423 4.3157845
13.997005 52.003613 13.355327
13.891238 51.304337 14.304499
13.714034 51.269512 15.76732
13.9177 51.53067 16.327747
14.2182455 51.553173 16.806288
13.964405 52.22594 -3.689102
13.649872 52.576523 4.834206
14.30863 52.84815 8.703282
14.137295 52.861824 9.997511
13.785863 53.021572 10.664206
13.813415 52.87615 11.433422
13.427404 52.834938 12.759558
13.680319 52.552242 14.823254
14.294565 53.594967 -4.787981
13.842595 52.814186 -2.9700394
13.866526 53.222874 -2.5193827
13.763531 53.470345 5.19467
14.30702 53.531193 8.107992
14.202774 53.396122 8.49652
13.428974 53.343136 10.646886
13.679917 53.552727 15.38248
14.14698 53.770477 17.265007
14.179638 54.249134 17.917744
14.279805 54.28548 -4.485944
14.300663 54.245045 -2.9104688
13.698057 54.625645 -1.2979279
13.655592 54.331913 4.577419
14.274045 54.641293 7.308954
14.216803 54.456856 8.507387
13.952974 54.692738 9.336203
13.473108 54.620186 17.134329
13.884459 54.88255 18.046577
13.8012 55.034843 23.153204
13.728272 54.81448 23.658857
13.600202 54.717705 24.46447
13.659384 54.655537 25.353682
13.649305 55.004776 26.238602
14.378466 54.91512 -4.3844857
14.093243 55.15952 -2.4377441
13.897926 55.69699 -1.2311982
13.510833 55.66294 0.9848658
13.617569 55.65399 2.4888976
13.5570965 55.345882 3.2902243
13.435022 54.806694 3.9842582
14.154076 55.23783 4.8408985
14.274738 55.41535 6.702695
14.283709 55.704723 7.31015
14.254699 55.50695 8.576288
13.720779 55.195183 9.712386
13.859832 55.855274 18.517214
13.593744 55.67242 22.8247
13.407323 55.514534 26.535181
13.710053 55.65129 26.692669
14.37322 55.80989 -2.9246178
14.392785 56.168736 -2.113861
13.784045 56.394936 -0.60014987
13.583431 56.286148 0.112465225
13.879326 56.23382 1.2016802
14.147242 56.439938 2.1453657
14.186306 56.033195 3.4806557
14.424409 55.985054 5.6476645
14.36251 55.964573 7.124076
13.418725 56.09737 22.729307
13.310755 56.180866 26.509779
13.93837 56.31698 26.791065
14.238211 56.739384 -1.0278782
14.10295 56.818237 -0.4764051
14.073903 56.796944 0.34696433
14.162296 56.617058 1.1825231
13.996826 57.663734 10.243692
13.253814 57.44544 10.580164
13.282894 57.952675 19.656097
14.011325 57.184834 22.706692
[...]
POINT_DATA 6849
SCALARS features_00 float 1
LOOKUP_TABLE default
0.84438133 0.8272518 0.81207204 0.8340345 0.86116695 0.8672309 0.8372536 0.81736887 0.8553412 0.863229 0.80409944 0.7592911 0.7857194 0.77353925 0.7868163 0.7190514 0.63716227 0.6374488 0.54384536 0.45420274 0.4990738 0.600474 0.65179056 0.6483905 0.5878147 0.6359491 0.65109557 0.6238172 0.41131005 0.46962416 0.49104416 0.51142377 0.48377445 0.51330674 0.49620408 0.5250513 0.5786331 0.62343824 0.5216112 0.57676196 0.5572528 0.55943364 0.5432759 0.50786597 0.5235796 0.4992062 0.45488977 0.7355206 0.77529424 0.7448303 0.7340642 0.79599655 0.7606213 0.65703994 0.7861732 0.5549209 0.6523684 0.69484824 0.48077554 0.6189424 0.57540137 0.5600941 0.33459502 0.35505915 0.25562042 0.3950749 0.42218947 0.35352582 0.4021444 0.20096132 0.30779126 0.37414134 0.40674034 0.39457494 0.35102412 0.5797189 0.5284228 0.5342505 0.30341846 0.5282784 0.6197279 0.5470374 0.42208874 0.29068965 0.30170432 0.3126761 0.32213017 0.5236738 0.5805262 0.6119675 0.58195364 0.24186796 0.31304187 0.40810993 0.49896234 0.5431988 0.5372137 0.23338741 0.27739215 0.312686 0.37606418 0.4204722 0.45292437 0.4902947 0.44088233 0.5244869 0.49949747 0.44070512 0.48599356 0.47309908 0.4664128 0.4120621 0.4480586 0.46410203 0.43287915 0.41746727 0.39744294 0.40093517 0.4265709 0.38745382 0.3193079 0.33845615 0.6582292 0.6134402 0.5277707 0.7083172 0.6216799 0.46146363 0.7276789 0.40250212 0.5697262 0.23999536 0.36616814 0.41252956 0.34286582 0.32416502 0.42654788 0.46904022 0.16146676 0.11756591 0.23469162 0.14018102 0.14630103 0.26567402 0.40681785 0.46358913 0.21408167 0.21329746 0.2344372 0.09171346 0.17202802 0.17085898 0.20751992 0.27415258 0.33436766 0.35571146 0.37161365 0.16348834 0.2956136 0.29830396 0.29351413 0.9376048 0.8982116 0.8398491 0.24408767 0.22130217 0.199447 0.21902683 0.23850325 0.43974835 0.2518392 0.30586886 0.32269916 0.80091983 0.8312143 0.8892009 0.8342469 0.766228 0.24072346 0.38076913 0.24188994 0.7697519 0.7285778 0.70641243 0.6537514 0.31882587 0.37318897 0.09480379 0.31138846 0.46761057 0.54856384 0.57656217 0.247361 0.23967332 0.062046222 0.40597802 0.43573615 0.3075175 0.30708495 0.17347562 0.25844717 0.35246325 0.30202234 0.26974732 0.15622848 0.36066753 0.35180864 0.2764366 0.23932989 0.19264546 0.2994481 0.31741965 0.29380643 0.29594275 0.26579112 0.20558052 0.37377176 0.4310103 0.34391963 0.41581488 0.472322 0.4798947 0.46789816 0.47312063 0.34599948 0.33295476 0.37422824 0.40304112 0.43907785 0.4443149 0.5262903 0.5136341 0.4553573 0.31009367 0.32309294 0.32948557 0.37109944 0.4363501 0.32344422 0.31826788 0.49660832 0.49064755 0.4038751 0.033156708 0.4433534 0.2931344 0.24068013 0.045281895 0.061276708 0.14921662 0.26470247 0.32286963 0.7856008 -0.021706663 0.0748869 0.24219964 0.3453592 0.34061038 0.33139533 0.08782134 0.32338288 -0.048616134 0.13958672 0.3591032 0.3590234 0.321185 -0.035150602 0.41554174 0.13456953 0.05695497 0.073893294 0.07547834 0.0748123 0.09993239 0.21910077 -0.032499894 -0.02520606 0.49026352 0.2007547 0.1849335 0.13044743 0.017152265 0.13049504 0.21061608 0.25832635 0.050419465 0.12377255 0.3598082 0.16321556 0.1298416 0.12353571 0.2658034 0.27425942 0.81266606 0.8619753 0.934724 0.9332522 0.7916508 0.29605937 0.119100794 0.20444204 0.22123134 0.18399315 0.19955955 0.27148804 0.12582393 0.16233692 0.19837432 0.116903424 0.111152284 0.2959297 0.77604306 0.7276926 0.6826572 0.15920633 0.17192069 0.25001913 0.2571759 0.23842077 0.185413 0.10843845 0.106886245 0.20951357 0.74067086 0.65727335 0.60014814 0.23647337 0.25661328 0.2652848 0.25087827 0.21584341 0.24653971 0.17259029 0.62877566 0.45490247 0.48368764 0.2273716 0.04881443 0.24178363 0.28506178 0.32033616 0.276542 0.27530575 0.08826588 0.16811556 0.27045104 0.3368467 0.36860013 0.36352733 0.11272057 0.17368644 0.27729225 0.32486784 0.3922228 0.37829095 0.36038452 0.32625765 0.2198423 0.21116711 0.26577353 0.32080185 0.37497908 0.36276287 0.32031816 0.3282286 0.25326383 0.19236422 0.21163648 0.25701928 0.34926373 0.34027758 0.3022044 0.21462414 0.15246515 0.15873931 0.17498565 0.21084137 0.24102804 0.3107552 0.3587864 0.38544506 0.26587477 0.38200217 0.4007624 0.4282896 0.42235246 0.3718806 0.22460401 0.2367489 0.43628266 0.39320087 0.5033182 0.4455915 0.33689994 0.4200681 0.3788563 0.49252135 0.51953095 0.17474538 0.3886222 0.34599692 0.52366304 0.2072011 0.20036137 0.13724664 -0.0035222173 0.43866456 0.24882604 0.9240186 0.8621793 0.7496333 0.5656497 0.36792773 0.2188336 0.21130738 -0.025036365 0.14093716 0.2911625 0.40995163 0.24497762 0.18773559 -0.012479346 0.27319506 0.21593928 0.2559123 0.9441258 0.9001415 0.79963636 -0.010653615 0.042282015 0.08827022 0.06458223 -0.094739646 0.25585175 0.90146565 0.8735002 0.7303953 0.40221825 0.16010536 0.1857276 0.016565427 -0.023338124 0.009601623 -0.019731134 0.2815995 0.8223531 0.777761 0.2604867 0.13636361 0.16171399 0.07604317 0.044700284 0.031083997 0.11003758 0.4176507 0.1258734 0.39878863 0.22227621 0.18102065 0.76173884 0.7232629 0.7587228 0.74398655 0.44987234 0.4232425 0.35348666 0.18240243 0.2094387 0.6720392 0.6274177 0.42416984 0.37397608 0.19424897 0.19759983 0.21299413 0.06613047 0.120557696 0.19726567 0.23063162 0.2109285 0.18328208 0.21106017 0.69494617 0.5513728 0.2818005 0.28087834 0.26797867 0.26286763 0.25554904 0.06451654 0.15225813 0.2166586 0.2511359 0.23779142 -0.30902925 0.4302237 0.3627544 0.28925633 0.28654101 0.3273728 0.3294242 0.37388423 0.37747282 0.41337565 0.36485678 0.3942271 0.45724523 0.4162286 0.40332603 0.32847923 0.4026171 0.39377606 0.3634458 0.35502663 0.21324918 0.35198125 0.33650142 0.1883138 0.17504998 0.20594192 0.2331455 0.24748802 0.25872648 0.2194832 0.26984248 0.27623892 0.29126117 0.2849705 0.16462281 0.18440737 0.22390816 0.08101718 0.28696892 0.30801734 0.31123835 0.34385926 0.06134893 0.0679092 0.34561878 0.28022173 0.43683714 0.27133262 0.137662 0.2759271 0.43524444 0.28432617 -0.017333988 -0.005499661 0.006485522 0.20580329 0.471929 0.20510527 0.74562865 0.64701766 0.4791451 0.2642063 0.09174371 -0.08172087 0.04197526 0.013388686 0.004080437 0.11349335 0.17959142 0.23217398 0.22997382 0.33917746 0.06630102 0.47021848 0.9252342 0.8522489 0.2305344 -0.037816074 -0.12279177 0.06524097 0.14507426 0.18970135 0.21198365 0.16947323 0.13021609 0.37634057 0.46716774 0.9554884 -0.015865088 -0.32116178 -0.16009709 0.8898048 -0.15120506 -0.14665192 0.032923833 0.020204175 0.79307455 0.71173084 0.5312959 0.037815142 0.13417366 0.4586286 0.5581448 0.5436907 0.6752467 0.6122047 0.46848905 0.45990527 0.12625906 0.43448812 0.44755518 0.62043715 0.4542991 0.45211118 0.21432222 0.5086268 0.3984136 0.21266913 0.15331307 0.1771238 0.25914848 0.26804745 0.25145802 0.21108012 -0.15575373 -0.20487782 0.26232553 0.46276307 0.4297881 0.390495 0.33350056 0.31749046 0.28139848 0.2755247 0.30614677 0.34533703 0.30403316 0.50046825 0.48864144 0.44588745 0.426843 0.40874982 0.39430124 0.37125838 0.37210375 0.45153165 0.47221637 0.41084242 0.48176068 0.46951377 0.42176113 0.42346686 0.44389722 0.40195858 0.3619091 0.33076817 0.16499129 0.1487078 0.3592472 0.42346305 0.43242684 0.32890058 0.31695345 0.22169107 0.2331554 0.2957338 0.3536479 0.3309152 0.3256366 0.32736287 0.3129108 0.38403955 0.39283073 0.35652614 0.36663336 0.37946343 0.3829669 0.35852858 0.32202882 0.3477026 0.3464532 0.30447632 0.13991557 0.27733904 0.29518378 0.266522 0.23761454 0.24475063 0.21216954 0.17964795 0.21467002 0.15354215 0.11667124 0.203174 0.15654188 0.10712359 0.20233919 0.11347203 0.22893474 0.2930922 0.3017938 0.32311645 0.27129197 0.32826036 0.31916237 0.3103959 0.22075376 0.050326914 0.2701889 0.33645415 0.32476288 0.3389787 0.33558896 0.20052083 -0.069856204 -0.024251314 -0.021801453 -0.0049553066 0.05260261 0.12624297 0.11295763 0.24950916 0.21065474 0.27808198 0.32683176 0.38514677 0.5101085 0.54244065 0.68564594 0.61778045 0.12967335 -0.071823776 -0.13075098 0.33403516 0.5020719 0.58676517 0.58465976 0.84654874 0.7772905 -0.07621448 -0.13017377 0.08898034 0.3319932 0.5146301 0.5849772 0.6177422 0.8752352 0.29906586 0.41275388 0.5296544 0.59245217 0.7933853 0.035695884 0.16848493 0.7645257 0.6246351 0.06412692 0.08538908 0.4014761 0.3566291 0.039055083 0.07859519 0.4567632 0.46588913 0.39273542 0.3859882 0.3331464 0.41106153 0.45361894 -0.04402614 -0.07408934 0.37233728 0.36465192 0.36869395 0.5356028 0.5141275 0.41364476 0.1461907 0.19227783 0.49869335 0.47596097 0.33422184 0.4086419 0.3163037 -0.3403893 0.45623666 0.48644674 0.3522259 0.3317875 0.34385473 0.29558578 -0.45396233 0.50726336 0.50877607 0.48911092 0.4550423 0.476918 0.45490947 0.47183937 0.38810772 0.47256312 0.52918875 0.5366369 0.5256089 0.52639556 0.45802516 0.45705408 0.39484784 0.48050937 0.4410594 0.4573086 0.39576697 0.28380066 0.17881116 0.05276437 0.38117048 0.44508666 0.45591122 0.2605318 -0.008623257 0.1806335 0.15807492 0.39661297 0.43080574 0.35489535 0.29943305 0.31613743 0.37560332 0.40859866 0.42935956 0.4428175 0.4204302 0.4053257 0.3988685 0.40522763 0.38513112 0.3372596 0.3810233 0.39626148 0.40278816 0.37415206 0.3034674 0.32136244 0.3112911 0.25249797 0.2900252 0.32278854 0.34507334 0.15306816 0.06785488 0.30368906 0.3289727 0.33127218 0.22420423 0.25044012 0.28317636 0.043627813 0.3006801 0.27980116 0.31067657 0.25869435 0.19556877 0.2358097 0.22731827 0.2273283 0.26743808 0.24663293 0.15449484 0.2254186 0.25917798 0.13704881 0.19024135 0.15421605 0.17823572 0.27706265 0.28224003 0.25615537 0.57760334 0.55498284 0.49296772 -0.0561105 0.008140832 -0.20988937 0.27225885 0.2535969 0.4359121 0.54328275 0.36856008 0.31545478 -0.01419206 -0.063386396 -0.109111585 -0.0014092512 -0.017176922 0.0751632 0.321974 0.31250805 0.21336474 0.060359254 0.03775535 0.044827145 -0.0388449 0.03459901 0.39965844 0.5102132 0.5781429 -0.04819866 0.55404866 0.5172334 0.7467862 0.5789186 0.54171145 0.71336424 0.51949066 0.49964225 0.66627526 0.46070933 0.10122593 0.17537849 0.27424157 0.2968243 0.36638087 0.30164024 0.05416689 0.32149956 0.04087791 0.30790246 0.3957323 0.44986394 0.37208956 -0.011486616 0.1536221 0.3052777 0.39920065 0.49337286 0.50498486 0.40181744 0.3755161 0.15904988 0.46786165 0.4067879 0.36624557 0.34302035 -0.1697097 -0.24034622 0.048607685 0.09553076 0.42564076 0.3843903 0.28122023 -0.3392898 -0.20742023 -0.5748931 -0.32833874 0.35061783 0.41548496 0.45734328 0.46499664 0.3413683 0.3463445 0.2634093 0.45654693 0.45130903 0.3903201 0.31876698 0.49358553 0.38100818 0.26870918 0.23722345 0.4934916 0.5396093 0.60847026 0.54002005 0.4197693 0.40670845 0.5362177 0.5659871 0.59079176 0.46333316 -0.06614965 0.47018167 0.44753557 0.22152755 0.19923206 -0.06123449 0.4799063 0.5005087 0.43345693 0.4571118 0.48256415 0.35313767 0.3931573 0.39311635 0.43283093 0.46162426 0.45205367 0.41817048 0.43722695 0.44961193 0.47137222 0.3662232 0.3857627 0.38745838 0.34576553 0.3037 0.13269481 0.28493974 0.34145212 0.23801446 0.20477149 0.2379692 0.28998393 0.26521334 0.19093685 0.163717 0.2562208 0.07432026 0.25432906 0.03338323 0.095706575 0.1960983 0.19735682 0.25338385 0.22737923 0.21817967 0.22401485 0.20570834 0.5378083 0.5461749 -0.05014704 -0.044099264 0.12692219 0.047477026 0.12960672 0.20657119 0.49573344 0.5535122 0.47718447 -0.049868405 -0.027634174 -0.07044071 -0.07971229 0.052425325 0.21034709 -0.23278381 -0.3497064 -0.23778461 0.33057857 0.25302425 -0.10046293 -0.16617225 0.38530698 0.41541177 0.49704593 0.40084165 0.293713 0.3067808 0.05924412 0.12492369 0.2593758 0.2385181 0.02830875 0.29282483 0.28353024 -0.017543554 0.22894679 0.33639836 0.34416473 0.3350567 0.18662162 -0.09370066 0.06846499 0.45705184 0.4447725 0.40607607 0.33763486 -0.5387531 -0.43692464 -0.120869644 -0.040317237 0.39129835 0.42728734 0.4645971 0.2443209 -0.56814003 -0.54640657 0.34145755 0.34389675 0.44293195 0.47195148 0.45174444 0.2831256 -0.06403048 0.30257946 0.4602062 0.42457378 0.34861237 0.24227032 0.38823166 0.29927674 0.31930923 0.43160433 0.49831742 0.5521927 0.50386894 0.36294177 0.49540293 0.5464894 0.5769598 0.6182872 0.077351846 0.16186991 0.027069867 -0.023220316 0.4979405 0.1774427 0.25225455 0.1677905 0.5291517 0.5313394 0.25721627 0.22061598 0.4003495 0.47586167 0.50188005 0.34061372 0.34448138 0.43675295 0.41281435 0.3681731 0.3806871 0.44482136 0.4245667 0.4519043 0.44576073 0.8992164 0.8868649 0.8073863 0.36667603 0.34640247 0.40515566 0.29801935 0.28817058 0.8730256 0.8589065 0.8202325 0.28592193 0.27574924 0.15283534 0.0846183 0.32524866 0.3298189 0.3354275 0.314193 0.2800058 0.28492254 0.83459175 0.8191558 0.36865753 0.28049567 0.21786506 0.07382712 0.09269832 0.17472363 0.104570895 0.031353667 0.06774227 0.26726308 0.43705285 0.18278238 0.068384044 0.28229076 0.32492632 0.24910805 0.055949867 0.13189958 0.21389636 0.21283498 0.25123978 0.3092913 -0.024328709 0.062391497 0.20103833 0.20865689 0.34565765 0.5176176 0.50443166 -0.2141839 -0.18343732 0.2205664 0.19826755 0.43117496 0.50429595 -0.0183997 0.1457695 0.16521156 0.14939669 0.1848348 0.25662598 -0.39969906 0.19776054 0.24050243 0.17472231 0.3011705 0.30275205 0.13060589 0.29970995 0.14128509 0.22643128 0.06409514 0.1658502 0.116886646 0.23243374 0.20677254 0.19965972 -0.01966431 -0.04741451 0.15912317 0.20866182 0.28559843 0.2353156 -0.096259855 -0.13845237 0.14225861 0.21166278 0.26684088 0.26275486 -0.13125661 0.17774992 0.35877892 0.32976374 0.18782157 0.13098493 -0.21726677 -0.38507324 0.33719227 0.24221271 -0.3753669 -0.54874825 -0.5409713 -0.5221708 -0.4900354 0.34769422 0.43836397 0.4765219 0.17418846 0.14051571 -0.15096205 0.32439077 0.4740362 0.42710227 0.3558941 0.20438915 0.24796847 0.32540828 0.39613155 0.28602645 0.2944959 0.30123672 0.28333148 0.33126837 0.44974375 0.47710446 0.5761004 0.54687345 0.4611463 -0.09281908 -0.1561057 0.42237586 0.53187066 0.5648831 0.5937947 -0.033380967 0.08247504 0.48383942 0.1633933 0.30606252 0.25453052 0.105992384 0.48297423 0.536656 0.5184282 0.33442956 0.3591573 0.05946236 0.48311794 0.38349617 0.31018898 0.29994583 0.33819306 0.25935516 0.24163193 0.2686779 0.45941383 0.4495868 0.4084007 0.3281146 0.3487883 0.43578482 0.45348978 0.106429845 0.29573816 0.2585663 0.32370737 0.43255264 0.43836007 0.43139434 0.3871495 0.39594054 0.39400816 0.3974477 0.4528708 0.46991754 0.45507252 0.47094253 0.50760084 0.49690628 0.75087214 0.76704067 0.6318214 0.6974307 0.7003561 0.7444807 0.9288627 0.9166738 0.8946857 0.7719505 0.64645827 0.5025473 0.49839985 0.5272978 0.54365885 0.573456 0.92992914 0.91826963 0.6992754 0.6537785 0.6317315 0.4280722 0.30348444 0.4258625 0.27005434 0.2732273 0.24644189 0.2398104 0.25332236 0.88160396 0.8672137 0.6492718 0.5401436 0.24679941 0.25778297 0.19492307 0.21742639 0.18852372 0.25738755 0.25953174 0.29775 0.8338815 0.8063512 0.75101143 0.58836305 0.53319246 0.52296 0.43392432 0.22130725 0.023399983 -0.030271053 -0.24578156 0.29439428 0.30506238 0.57378995 0.30835247 0.32998002 0.28199992 0.2581709 0.2324445 0.24522877 0.259691 0.33099878 0.43919653 0.49119365 0.5226291 0.15969956 0.16114898 0.41800082 0.44215053 0.47321868 0.4838193 0.36183995 -0.12651518 -0.11065197 0.33754957 0.29320902 0.1254877 0.37995076 0.240787 0.115252614 0.12922938 0.3397178 0.18994348 0.15040725 0.07887825 0.2899504 0.099090494 0.32566273 0.30568314 0.12735966 0.117429055 0.18940122 0.23820534 0.28524747 0.035896152 0.099559106 0.1872349 0.24742645 0.26759735 -0.24102283 -0.3644535 0.06769726 0.26335806 0.26704055 -0.32555228 -0.143564 0.09173221 0.2684834 -0.034174874 0.027185649 -0.28236035 -0.39051735 0.3179645 0.07027928 0.08790013 -0.4706021 0.007842219 0.34023058 0.24554923 -0.39283055 -0.39116308 -0.5813705 0.22576588 0.44204015 0.39136612 -0.0030740201 -0.4039165 -0.27524325 0.29053828 0.17185426 0.11978193 0.10364998 -0.12822068 0.31199148 0.3563555 0.31917775 0.30041254 0.10209393 0.32794675 0.32853937 0.5004536 0.5511473 0.57856864 0.48989612 0.37088823 -0.19198184 -0.14621587 -0.13203914 0.37712166 0.5628793 0.5755875 0.054725096 -0.012527794 -0.07766613 0.04821538 0.4363597 0.4666031 0.13722166 0.09315467 0.074289404 -0.3920489 -0.2815528 -0.08254307 0.063868724 0.44867483 0.48791742 0.5003649 0.23387948 0.20988363 0.12284273 0.067984276 0.21449843 -0.3417797 0.3410409 0.31556413 0.17153104 0.060186476 -0.0007136315 0.41530108 0.45188686 0.23753592 0.09803729 0.027401686 0.33104315 0.21673289 0.032277584 0.37709844 0.39246613 0.30882266 0.24379323 0.45425624 0.4844101 0.46653852 0.24015418 0.05442152 0.34924507 0.36585194 0.37043077 0.435201 0.43176985 0.36241895 0.32429224 0.32854515 0.39496997 0.45830187 0.5122342 0.47106212 0.52431834 0.53551763 0.69857264 0.72381645 0.6826222 0.73357093 0.7577345 0.7783148 0.83376086 0.7963833 0.68058705 0.6387961 0.76827884 0.882764 0.8650615 0.66258407 0.613896 0.5926707 0.36422417 0.64932674 0.9213668 0.5954774 0.15024284 0.11363322 0.13511162 0.07406359 0.27944964 0.4940161 0.17820585 0.23277114 0.21245274 0.23273306 0.25224665 0.9310316 0.0744105 0.17894691 0.22380263 0.18495658 0.1636589 0.04186109 0.31628883 0.1334021 0.30521393 0.8285682 0.7929219 0.4365625 0.07731413 0.18406148 -0.37088084 -0.3107955 0.31834793 0.7597308 0.42347178 0.39105153 0.14941251 0.102487266 0.1962016 0.2403175 0.39810807 0.52137935 0.5594243 0.53715444 0.08591567 0.45656198 0.29004887 0.21816692 0.31051916 0.49896884 0.37530917 0.10096294 0.06521125 0.48127687 0.41964668 0.06398227 0.5826767 0.49008074 0.049161717 0.2710184 0.034748726 0.036863677 0.26828963 0.15802285 -0.057732362 0.2628636 0.2618041 0.24463817 0.10865201 -0.11519606 0.26761088 -0.3474943 0.27759472 -0.09124716 0.13402042 0.34705848 0.3871136 0.011914626 -0.2211818 0.41569176 0.08175334 0.053129077 -0.261638 0.38804227 -0.14647342 -0.3936103 0.34397995 0.18141587 -0.2496337 -0.38420498 -0.50983 -0.48882324 0.25577483 0.1887048 0.09573575 -0.2670105 0.27419025 0.27976763 0.4665761 0.5532073 0.4788886 0.39620343 0.25448364 0.0041726753 0.30738518 0.568579 0.52896374 0.48446167 0.26914537 0.3002897 0.11813624 0.10216659 -0.26416397 0.2717717 0.35175443 0.11999275 0.10212852 -0.018226705 -0.030613475 -0.012682319 0.069705136 -0.48963815 -0.31920147 -0.223299 0.1823642 0.24006383 0.00761766 0.0034011826 -0.2291499 0.29863036 0.038493 -0.00045434386 0.058020018 0.37406725 0.17343605 0.26817417 0.419819 0.16145915 0.087639935 0.16066302 0.216416 0.33533752 0.32673326 0.027829528 0.4500264 0.41914588 0.40308893 0.36655325 0.12773842 0.32858184 0.31738824 0.31546164 0.3589306 0.3950702 0.38187197 0.27729595 0.389697 0.4576618 0.5496062 0.5538348 0.5185207 0.49547607 0.54597205 0.56434727 0.54372025 0.64707243 0.6872268 0.46282834 0.43494478 0.40307117 0.4268289 0.5901981 0.6433997 0.7147584 0.73294616 0.7365659 0.64062625 0.3110349 0.3427275 0.37182426 0.73079795 0.77237034 0.72404367 0.5675352 0.2785674 0.2454994 0.29012117 0.20391348 0.044303924 0.011856377 0.13891561 0.2719437 0.62997633 0.602955 0.2509435 0.8204866 0.13836335 0.1769138 0.18086258 0.045165896 -0.030020274 -0.13648693 0.12201611 0.190759 0.22858903 0.27158475 0.86198115 0.033632174 -0.404257 -0.34604764 0.013991294 0.29479828 0.306149 0.7875864 0.010948747 -0.0024127811 -0.4287747 -0.35600185 0.2823177 0.6820693 0.36160278 0.104813695 -0.06881478 0.19722241 0.46490327 -0.077230155 0.06637035 0.0967611 0.25525853 0.36079335 0.49958044 0.56897473 0.5252221 0.116164446 -0.010977002 -0.046540625 -0.022331297 0.44667307 0.19569516 0.16954638 0.26000014 0.25102866 0.5870718 0.5487623 0.17048708 0.609702 0.008893713 0.009875298 0.59983665 0.59313774 -0.0047508404 0.5627606 0.58957815 0.5962961 0.55024636 0.46679854 -0.08480704 -0.12291013 -0.054864246 0.5009356 0.5619333 0.57928365 0.19592462 -0.32186434 -0.19606654 0.26347977 -0.20646875 0.31471276 0.39236954 -0.1235179 -0.025309682 0.41822624 0.10945998 0.39846355 0.067962736 -0.14416745 -0.36425787 0.30193198 0.35947555 -0.112701476 -0.20102552 -0.289955 -0.22516976 -0.35103115 -0.35749024 -0.37075028 0.1711929 0.16593724 -0.25543022 -0.34993958 -0.43221882 0.25016427 0.2556458 0.33665118 -0.11930739 0.14918272 0.13018498 0.17849725 0.