# vtk DataFile Version 2.0
Really cool data
ASCII
DATASET POLYDATA
POINTS 2822 float
11.470478 69.905716 -15.025851
11.04554 70.203354 -10.42694
11.175861 71.02144 -15.065128
11.058642 70.83875 -14.41218
11.1907015 70.88746 -13.480361
10.794053 70.84766 -11.243344
10.722694 70.807785 -10.586846
10.906532 70.76719 -9.885548
11.23261 71.47442 -15.146745
10.988114 71.546585 -14.578568
10.984046 71.71847 -13.904789
11.111439 71.70544 -12.506504
10.591559 71.44276 -11.053744
10.601878 71.4687 -10.528145
10.787717 71.38082 -9.909892
11.359607 71.37498 -9.139877
11.187223 72.05686 -14.9263525
11.061294 72.07263 -14.530293
11.05901 72.17988 -13.435808
10.797936 72.33908 -11.053747
10.665193 72.10845 -10.623747
11.074613 72.215256 -9.77931
11.211957 71.887505 -9.274189
11.223882 73.2669 -13.231894
11.233455 73.40896 -12.432976
11.225092 73.24035 -11.503721
11.367467 73.15449 -10.151276
11.383716 73.944374 -11.829841
12.31542 67.27859 -15.780826
12.380872 67.754234 -17.971302
12.201523 67.9729 -17.544558
12.09163 67.94899 -16.22023
12.080867 67.86451 -15.452494
12.020856 67.94139 -14.707785
12.3288765 68.134224 -13.916532
12.458832 67.15427 -5.94373
12.378488 68.250496 -17.905617
12.145399 68.41755 -17.312906
11.952764 68.35121 -16.289968
11.666424 68.6 -15.326896
11.6994 68.49437 -14.650915
12.050155 68.65247 -13.876935
12.316787 69.065605 -17.607811
11.979071 69.32399 -16.28295
12.035485 69.9606 -12.156204
11.4074335 70.08518 -11.134655
11.734305 69.746605 -10.523449
11.549091 70.076836 -9.815667
11.607012 70.0512 -15.66862
11.396843 70.55321 -9.283638
11.624597 70.550514 -9.035582
11.518787 71.69184 -15.541512
11.524581 71.53506 -8.922308
11.933682 72.052925 -15.674486
11.410845 72.07515 -15.158081
11.461924 72.38939 -9.41365
11.799156 72.19387 -8.998756
11.594523 72.89838 -14.7166195
11.453185 73.38834 -13.668216
11.593356 73.69854 -10.3293495
11.781139 73.14721 -9.547256
11.831874 74.19002 -13.22392
11.753218 74.61794 -12.364503
11.64143 74.24473 -11.573194
11.8814945 74.28376 -10.702275
12.270692 74.21703 -9.771859
12.310403 75.96838 -18.437798
12.0732975 75.914696 -17.332798
12.122775 75.587654 -16.560734
11.832194 76.08291 -15.867466
12.230912 75.40245 -12.210603
12.25418 75.46912 -11.542938
12.211867 74.75812 -10.859353
12.401736 76.556595 -18.760118
12.233758 76.52114 -18.354578
11.921961 76.4726 -17.377516
11.73301 76.614265 -16.48935
11.768272 76.68897 -15.800055
12.271472 77.03981 -18.240047
12.024628 77.25948 -17.306538
11.820424 77.417496 -16.343573
11.885797 77.37801 -15.631109
12.15976 77.26113 -15.129487
12.193989 77.751076 -17.01187
12.093403 77.81887 -16.459518
12.150828 77.891075 -15.809955
13.354116 66.21932 -18.66982
13.236663 66.07352 -17.47955
13.189993 66.216484 -7.5107036
13.027612 66.091064 -6.2661085
13.028585 66.181625 -5.8365593
13.247853 66.836334 -19.07534
13.000517 66.67111 -18.344143
12.749171 66.79388 -16.508654
12.561982 67.11546 -15.535082
12.887774 66.97915 -14.776663
13.070294 66.776436 -8.306645
12.872014 66.623184 -7.323241
12.67518 66.55254 -6.3841
12.823943 66.58923 -5.6585975
13.052122 66.692024 -5.1836
13.21963 67.42714 -19.311302
12.709494 67.558205 -18.57427
12.462823 67.46247 -17.552732
12.616305 67.44874 -14.491478
12.695034 67.741196 -13.876351
13.194675 67.38069 -8.971379
12.598514 67.65374 -6.998647
12.533813 67.34104 -6.288999
12.651074 67.41948 -5.5315175
12.938938 67.45149 -4.9911685
13.051357 68.37198 -18.94903
12.624512 68.46294 -18.393637
12.836559 68.609764 -13.156388
12.505002 69.31387 -11.120376
12.400281 69.34122 -10.4398
13.042306 68.87263 -8.886597
12.939153 68.43913 -7.290529
12.700186 68.48376 -6.599037
12.753165 68.14698 -5.522909
13.10024 68.16967 -4.940047
12.730925 69.176285 -18.183825
12.607918 69.84607 -8.876382
13.007634 69.41414 -7.8546033
13.319452 69.44772 -6.2821374
13.272239 69.01479 -5.4025826
13.14658 70.077484 -17.787111
12.968252 70.20311 -17.402632
12.565669 70.27926 -8.588484
13.212528 70.11507 -8.264674
12.382281 71.5871 -16.178736
12.612378 71.358604 -8.34914
12.5507345 72.641716 -15.469149
12.719157 72.728065 -8.684766
12.951011 71.99051 -8.351445
13.26509 74.24107 -16.230774
12.676257 73.784706 -15.688556
12.58424 72.999214 -8.945383
12.911488 75.179054 -18.360394
12.834561 74.935356 -17.562391
12.941148 75.77379 -18.990444
12.5572405 75.78256 -18.579138
12.409569 75.4014 -17.651571
12.649952 75.74948 -13.519664
12.619387 75.139786 -10.347787
12.871941 74.73377 -9.748173
12.739848 76.5152 -18.997408
12.480666 75.936646 -11.835587
12.833585 77.006134 -18.886143
12.640754 77.2276 -18.467392
12.335719 77.60694 -17.576164
12.742871 77.50043 -14.661957
13.2802725 76.64273 -11.844278
12.766804 77.615776 -18.030075
12.65863 77.834236 -17.301931
12.695415 78.15997 -16.418613
12.6613865 78.079445 -15.6390085
12.5913315 77.839554 -15.116205
14.181978 65.19786 -18.22324
14.276188 65.10281 -17.527359
14.257115 65.28648 -15.775122
13.876397 66.08146 -19.145857
13.7164755 65.75324 -18.399841
13.525335 65.72819 -17.511864
13.600227 65.702896 -16.827488
13.771599 65.81888 -15.558332
13.781872 66.04079 -14.93028
13.746298 66.32309 -8.843956
13.786161 66.09857 -8.247242
13.576312 65.99722 -7.296831
13.549058 65.8711 -6.4641647
13.472557 66.037506 -5.7439003
13.30858 66.33426 -5.2876086
13.869881 66.79695 -19.735954
13.627086 66.76639 -19.495373
13.393409 66.62692 -14.602622
14.057716 66.72626 -14.005193
13.610535 66.757904 -9.192406
13.504973 66.36711 -8.680113
13.556321 66.662575 -4.938633
13.826898 67.42866 -19.804768
13.383634 67.27146 -19.437824
13.996155 67.650154 -9.962496
13.446008 67.500114 -4.606099
13.747219 67.672554 -4.444991
13.833989 67.999695 -19.719746
13.461213 68.33807 -4.7420793
13.804397 67.99156 -4.38241
13.986822 68.95965 -18.874842
13.310508 69.41287 -18.480478
13.470803 69.75154 -6.8069305
13.825999 69.03419 -4.9284887
13.556002 70.08874 -17.901411
13.457606 70.128784 -6.5568166
13.750158 69.88062 -5.55853
14.3668165 71.161446 -6.072616
14.273718 72.53569 -16.710745
13.572829 72.61673 -8.252402
14.136774 73.93556 -7.8725796
13.73463 75.24637 -18.870043
13.68152 74.81607 -18.272701
13.546729 74.71842 -8.558066
14.13169 74.44659 -7.780473
13.61536 75.567345 -19.101706
13.817392 75.475945 -8.545607
13.980978 75.38533 -8.1021805
13.470965 76.44399 -19.222263
13.891798 76.49867 -9.875884
14.125252 76.376274 -8.525694
14.191006 76.039795 -8.112838
13.411019 77.04426 -18.996355
13.767999 77.37539 -18.684845
14.0361 77.51193 -12.362779
14.259538 76.99289 -11.531549
14.16496 76.81502 -9.543219
13.434822 77.66991 -18.132174
13.303781 78.00611 -17.233925
13.534455 78.188995 -16.366428
13.255564 78.20562 -15.670854
13.42371 77.85375 -14.542913
13.936864 77.90141 -13.729642
14.084412 77.66961 -12.674171
15.174297 64.35287 -18.247736
15.091634 64.35528 -17.883467
15.005701 64.951164 -19.111345
14.864168 64.67145 -18.501127
14.686549 64.687256 -17.589115
14.759037 64.79727 -16.458496
14.894048 65.00851 -15.624828
14.957012 65.19032 -15.205609
15.07741 65.70011 -19.655056
14.620387 65.5066 -19.231255
14.542751 66.23635 -14.090312
14.393605 66.09488 -8.447751
14.152 65.927086 -7.3510356
14.184883 65.89733 -6.519359
14.164551 66.05659 -5.705524
14.353945 66.63273 -19.807339
14.664466 66.76818 -13.613879
14.254571 66.396675 -9.204275
14.23637 66.734764 -4.8846555
14.468679 67.262924 -20.009583
14.582194 67.43908 -4.60718
14.133786 67.70581 -4.422816
14.172497 68.253204 -19.723701
14.19838 68.46842 -19.563337
14.534995 68.5941 -4.637391
14.541998 69.246635 -18.678307
14.719463 69.64345 -4.7573953
14.344565 70.188286 -18.004877
14.381849 70.598595 -17.54896
14.589712 70.48698 -5.205698
14.329037 71.42439 -17.220104
14.934544 71.214264 -5.1944547
15.004276 71.95205 -17.454245
14.954467 72.26142 -5.7952704
15.207299 71.95737 -5.2700863
15.008812 73.71286 -17.406857
14.71133 75.03168 -18.643639
14.818891 74.508835 -7.109675
14.40327 75.72988 -18.975746
14.412515 75.41776 -7.495692
14.921206 75.7437 -7.23288
14.385651 76.46584 -18.948965
14.725629 76.383995 -7.7134027
14.078265 77.062035 -18.797323
14.206343 77.29963 -18.376196
14.5896015 77.50385 -17.490503
14.421237 77.52767 -11.79167
14.624333 77.20344 -10.591505
14.469235 77.05881 -9.372564
14.842749 76.93766 -8.284174
14.19078 77.700874 -17.451767
14.490025 78.06307 -15.331748
14.536744 78.18888 -14.451333
14.758197 78.16452 -13.491295
14.706187 77.91871 -12.565875
14.714652 77.766975 -11.960553
15.043714 77.793564 -11.104467
15.784228 64.34258 -18.893105
15.731849 64.20725 -18.382872
15.678549 64.17153 -17.771837
15.616685 64.35861 -16.872417
15.678867 65.18232 -19.595734
15.480884 64.75097 -19.184994
15.252079 64.45521 -18.757765
15.581815 64.557045 -16.441626
15.64028 64.73722 -15.744244
15.456321 65.17743 -14.954595
15.792881 65.454666 -19.663261
15.289742 65.55224 -14.618281
15.471 66.06968 -14.100705
14.90054 66.10056 -8.51878
14.895021 66.27389 -6.087352
15.194123 66.38569 -19.813147
15.340962 67.135254 -9.651399
15.493834 66.52257 -6.49751
15.173567 66.885506 -5.608776
15.151615 67.20022 -5.093151
15.397961 68.029686 -11.74218
15.190743 67.653755 -4.9057717
15.547916 68.16919 -19.591463
15.122244 68.6274 -19.251099
15.513617 69.5434 -4.6525044
16.38488 70.35042 -19.135315
15.936559 70.02996 -18.721865
15.900901 70.89748 -4.7198415
16.303679 70.79514 -18.835138
15.385717 70.85142 -17.968115
15.61025 71.64603 -4.8628974
15.4047365 72.37054 -17.456604
15.297507 72.34006 -5.3195934
16.23276 71.86758 -4.695253
15.775187 73.056305 -5.891094
15.665091 74.93859 -6.8006134
14.775783 75.6093 -18.76137
15.285934 75.76043 -6.99118
14.794764 76.216324 -18.720526
15.246437 76.317215 -18.113113
15.651656 76.637726 -16.674152
15.768449 76.42142 -7.063655
14.910452 76.88417 -18.091446
15.227171 77.02218 -17.192404
15.559236 77.45794 -9.386654
15.535915 77.34796 -8.294909
15.583819 77.16315 -7.9957128
14.768163 77.668304 -16.938604
14.861052 77.74238 -16.29783
15.258334 78.06311 -15.376479
15.091463 78.22656 -14.760126
15.195985 78.13648 -13.364363
15.659325 78.22803 -12.58608
[...]
POINT_DATA 2822
SCALARS features_00 float 1
LOOKUP_TABLE default
0.34407574 0.543126 0.3244342 0.31328672 0.3293059 0.5447612 0.5838227 0.56844795 0.32525986 0.33041793 0.33994168 0.35674566 0.551256 0.5778454 0.56676865 0.48643097 0.3208685 0.3320449 0.33387697 0.464499 0.5221387 0.49149007 0.48437423 0.29480016 0.28153735 0.3289178 0.38755566 0.26948506 0.3633242 0.49413747 0.4544198 0.3728216 0.35649937 0.3386835 0.3143254 0.7909356 0.5004734 0.44208276 0.3712139 0.36524257 0.35316104 0.30741334 0.4892956 0.3685012 0.26794934 0.46432993 0.4435661 0.4889548 0.34141323 0.49425584 0.45365644 0.3034872 0.45078236 0.24589594 0.30611193 0.43715256 0.4035589 0.289873 0.29228872 0.3210536 0.35717264 0.22581488 0.22535552 0.26052034 0.26532325 0.23511547 0.82691693 0.70889866 0.5822744 0.65876925 0.21069527 0.22745264 0.23832634 0.88128436 0.83573544 0.7564751 0.7345954 0.70346075 0.83666205 0.7721303 0.7409568 0.70241725 0.63086975 0.76099247 0.73945427 0.70039177 0.53137404 0.4643659 0.6357422 0.7953888 0.82499176 0.5486863 0.5112893 0.3917243 0.35754544 0.34356332 0.5290151 0.6862489 0.78667474 0.8305439 0.8486802 0.5711563 0.53866154 0.44885543 0.3312389 0.30508024 0.4769972 0.6553149 0.75774443 0.7988539 0.81945443 0.568282 0.53895223 0.2191094 0.2756078 0.3384518 0.1506862 0.36732912 0.50529957 0.7091905 0.72614694 0.50760186 0.2669203 0.0884106 0.38348165 0.5523435 0.27274215 0.27324998 0.2805553 0.11191408 0.21399285 0.32089588 0.17265192 0.26927066 0.2738445 0.20933174 0.003333643 0.2739857 0.80847466 0.6298287 0.918592 0.84983426 0.6863832 0.15314558 0.20722646 0.19201003 0.92662704 0.22238919 0.91432565 0.86961365 0.79037184 0.48957884 0.18118274 0.82581735 0.7666441 0.7006304 0.639349 0.60249114 0.5648695 0.5430454 0.4699503 0.5630981 0.5361318 0.48231328 0.45464826 0.41740066 0.39858744 0.49263713 0.5306082 0.6553423 0.77004737 0.8301146 0.8516057 0.57645863 0.5687934 0.35683647 0.37643182 0.4733802 0.5058399 0.86288035 0.5850235 0.57363856 0.39456815 0.8146782 0.7806732 0.5739005 0.68484604 0.72912586 0.39277458 0.40529186 0.2337848 0.54106486 0.19432405 0.23567644 0.3829494 0.17757562 -0.0018156469 0.12271148 0.14577444 0.90410084 0.77239573 0.20825955 0.23255676 0.95086515 0.31347764 0.32832855 0.98768675 0.25967532 0.42444962 0.40534335 0.94491214 0.86896884 0.22278546 0.20403796 0.34027022 0.8251066 0.74073434 0.6315012 0.5720296 0.42801985 0.30559784 0.24073192 0.6810524 0.6586011 0.6597641 0.64733267 0.5944389 0.5433888 0.49746913 0.47881284 0.62599945 0.60969067 0.4356057 0.48182315 0.6227675 0.7446104 0.82747257 0.5753056 0.3831513 0.44334444 0.8527273 0.5741031 0.7594545 0.75223696 0.5376951 0.5023398 0.5847113 0.2098754 0.3508172 0.039912675 -0.045228325 0.26925957 -0.07900123 0.1702871 -0.121407144 0.1030952 0.11905251 -0.07057723 0.78001344 0.23403646 0.90644914 0.35066837 0.38704544 0.87678313 0.4627207 0.86088914 0.7625418 0.5659908 0.24609798 0.25638756 0.37496996 0.48307782 0.6411247 0.4301148 0.3719227 0.31369138 0.27924812 0.27145225 0.28654522 0.73874265 0.7304318 0.7030856 0.6377257 0.70061064 0.7089888 0.69804645 0.5902355 0.53460586 0.48323584 0.68929076 0.46735403 0.4381047 0.44212472 0.71073735 0.57285887 0.1715076 0.46464008 0.7097964 0.7427134 -0.03692518 0.6551175 0.42983806 0.32947415 0.22981086 -0.0032305196 -0.12513386 0.12771359 -0.08626732 -0.20925906 0.11868347 -0.12870356 0.10442624 0.10929106 0.041925564 0.24591073 0.8318598 0.37824798 0.794525 0.606403 0.3372643 0.44202214 0.61645585 0.44998348 0.34528422 0.44241506 0.47872898 0.47022504 0.4086346 0.3386628 0.3422284 0.31902614 0.32504398 0.3152151 0.30946147 0.3125296 0.75470155 0.75822634 0.7385808 0.65832293 0.74930847 0.7628645 0.6028683 0.517716 0.50481373 0.67112184 0.73804736 0.43832028 0.31494617 0.28668845 -0.078766584 0.050543025 -0.06164378 -0.033679515 -0.07666217 -0.106539786 0.11953997 0.5457611 0.03747654 0.52003086 0.6589179 0.71025264 0.59090066 0.16085814 0.0209385 -0.026276484 0.49640426 0.6758263 0.7475284 0.75231045 0.14147845 -0.13682187 0.06582556 0.7383651 0.7059656 -0.1830087 0.6121452 0.6320654 0.64613795 -0.1466252 0.050485414 -0.02576603 0.13558465 0.38582414 0.28666344 0.38266194 0.24333435 0.37042448 0.4253097 0.18090686 0.15497999 0.21006325 0.29168457 0.2970732 0.2840223 0.27107686 0.7530791 0.7426945 0.75962675 0.74043024 0.72940874 0.6466186 0.75006735 0.7176486 0.476592 0.43011302 0.04306325 -0.0009920597 0.06106241 0.0035436675 -0.21177238 -0.114293925 -0.17261076 -0.17146277 0.075232595 0.57272923 0.5548316 0.072961494 0.0785946 0.12926927 0.13245723 0.31157148 0.59689915 0.48374027 0.46985418 0.58022255 0.5989504 0.20679358 0.72972584 0.7076402 0.59297895 0.46625555 0.29421943 0.09164962 0.2509974 0.63451636 0.64451575 -0.042932376 -0.07470965 0.19600584 0.34534186 0.5073508 0.55678517 0.5809304 0.5562676 -0.27371746 -0.077676184 0.46601063 0.48668304 -0.112983875 -0.101830855 -0.013342589 0.0016487613 -0.05424142 0.2178693 0.04723908 0.0668634 0.041942455 0.31005222 0.24263394 0.112171374 0.23794973 0.24187142 0.35232365 0.36725575 0.2978109 0.41347858 0.3669687 0.31982073 0.4821468 0.48246166 0.44818264 0.3611923 0.527785 0.53250635 0.49783796 0.42175266 0.5550135 0.5395485 0.7495332 0.78494847 0.75827426 0.8210138 0.8721206 0.8294753 0.7957413 0.90216625 0.9246618 0.8446549 0.89067864 0.8699618 0.7749877 0.7578889 0.5270543 0.5631006 0.27523658 0.27976474 0.24415964 0.5221849 0.5931993 0.60817987 0.27154958 0.2491028 0.5224841 0.58846045 0.20802397 0.24428245 0.24097976 0.11386333 0.64895666 0.6371609 -0.06473041 -0.050264567 0.073067576 0.109987006 0.10596244 0.006793365 -0.11457323 -0.037230942 -0.1328654 -0.043790244 0.10839383 0.111298546 0.0627934 0.5608228 0.50577223 -0.18065509 -0.28077388 0.06592987 0.037598453 0.06911348 0.5326337 -0.1995456 -0.29225856 0.08257526 0.17716983 0.16489372 0.50771487 0.52551234 0.48746905 0.5312248 0.64910346 0.52161956 0.4465872 0.096923545 0.47361514 -0.017379092 -0.11955501 -0.1069878 0.43220043 0.44621563 -0.2277253 0.26923838 0.42221606 0.39819494 -0.24111073 -0.09109649 -0.06366131 0.05447626 0.057390153 0.12199283 0.08635165 0.033265322 0.028431207 -0.0043618605 0.19585672 0.18664652 0.040652 0.0439312 0.10324609 0.24860683 0.22685723 0.25368965 0.3574317 0.31298482 0.42950302 0.43534017 0.36735046 0.51067746 0.55222166 0.553879 0.5002633 0.4918748 0.5297885 0.543892 0.5350158 0.6749118 0.6788058 0.6612778 0.68541026 0.7085445 0.6956083 0.6987976 0.7174529 0.7382077 0.6982835 0.7306212 0.627439 0.7399168 0.72214454 0.42371634 0.46646243 0.48107427 0.6421377 0.6241659 0.53664136 0.41460925 0.48802608 0.53828204 0.5091167 0.24687177 0.27654567 0.26866716 0.013008162 0.39298376 0.5042967 0.60347235 0.5715735 0.13778771 0.19419758 0.25061622 0.18683189 0.29288337 0.31846303 0.5467622 0.5800047 0.54073787 0.128104 -0.012824338 0.035321757 0.37292105 0.40146083 0.39558554 0.5279769 0.013402459 0.07586857 -0.070991635 0.039453786 0.0863083 0.21091369 0.37264454 0.5637764 0.4884122 0.35484022 0.06783651 0.048390787 -0.07813977 0.5755574 0.5629838 0.019036986 -0.048408046 0.051819578 0.5109963 0.5350789 -0.08294685 -0.22079407 -0.33864772 -0.29347977 0.0001645051 0.16056667 0.48248422 0.44159567 0.43049857 0.46406192 0.40055966 -0.02188004 -0.17683321 -0.19708395 0.32897496 -0.0718116 -0.30188105 0.31245902 0.32159325 -0.07448432 0.008702949 0.18775424 0.33143264 0.34417722 0.07215858 0.14442076 -0.030314535 0.14003292 -0.16928025 0.0079725385 0.18877383 0.001384005 -0.05867991 0.14822713 0.16135302 0.26293057 0.25245953 0.22002491 0.027447462 0.030234687 -0.3758614 0.21013348 0.26596305 0.24115482 0.22118878 0.27981976 0.1452641 0.27674246 0.28334194 0.42135495 0.37476403 0.3006788 0.4530175 0.383914 0.49836427 0.41340253 0.3907145 0.42293388 0.47435117 0.507605 0.49898744 0.43379408 0.48034212 0.7296114 0.6483834 0.6600932 0.664281 0.6524486 0.6263805 0.6777029 0.6609981 0.5415208 0.605477 0.6158297 0.5359217 0.5721308 0.65469235 0.68569946 0.55647933 0.5163909 0.30111027 0.56698287 0.6413282 0.38632727 0.52845556 0.3140227 0.38395688 0.42929244 0.5715081 0.5319137 0.48551607 0.20867151 0.6021601 0.5729307 0.44304276 0.4188276 0.15839307 0.21071139 0.027724802 -0.09386542 0.002616779 0.062365383 0.48491353 0.6019965 0.55951023 0.44958922 0.15607949 0.055028394 0.06734758 -0.08701523 -0.05561832 -0.04293565 0.5072892 0.34773415 0.38462394 0.28105444 0.42330366 0.22983107 0.26164573 0.24666241 -0.06259902 0.028707385 0.27067322 0.54511595 0.4959631 0.17636064 0.15089685 0.19950598 -0.17839108 -0.095965564 -0.13360192 0.039101243 0.107722566 0.57688224 0.0063310415 -0.23066877 -0.1618369 0.5268325 0.5461675 -0.019852504 -0.10693386 -0.15529405 -0.32990485 0.011013046 0.35940075 0.48595136 -0.2564623 0.5462082 0.3984675 0.5629523 0.5989677 0.26136786 0.24855706 0.3688786 0.10998605 0.1401605 0.036566827 -0.07224116 0.2799348 0.34745154 -0.008152224 0.033765823 0.2081818 0.32954463 0.1300746 0.09735227 0.23957528 0.07174505 0.0032762885 -0.19053832 -0.020109639 -0.06565154 0.14299618 0.2607933 0.2684384 0.26820305 -0.20555508 0.02529195 -0.21324493 0.19018047 0.27927625 0.2585768 0.14521737 -0.0031493232 -0.0859307 0.12748027 0.10849342 0.20993792 0.19324672 0.1905913 0.16782123 0.11046648 0.07379877 0.20700258 0.2658954 0.23571326 0.0021901354 0.027045727 0.07596165 0.28290135 0.30484688 0.31202614 0.51486695 0.30276233 0.04616057 0.030089919 0.21642786 0.29610974 0.3209098 0.294344 0.5017188 0.45051265 0.39862344 0.33779654 0.11078787 0.024521396 -0.027003586 0.15333481 0.25598535 0.29205135 0.39256272 0.3629299 0.395379 0.4721254 0.44018114 0.41526327 0.1875842 0.023489911 0.33976266 0.32783747 0.4301551 0.40966696 0.45691246 0.42197663 0.21795197 0.64986897 0.64620525 0.59899044 0.6260972 0.72400284 0.74500513 0.7480496 0.7210715 0.702886 0.74123573 0.7658299 0.77615523 0.7643197 0.77114403 0.78042066 0.77915967 0.64048827 0.66719216 0.67235255 0.52573013 0.59454095 0.5963844 0.47469324 0.45108002 0.60919845 0.72436404 0.7758949 0.40384385 0.5276556 0.41753912 0.4315061 0.5723838 0.7644354 0.7850213 0.34885645 0.44268253 0.32876366 0.67911065 0.5095648 0.44658142 0.58374655 0.5792642 0.508041 0.45353475 0.12483632 0.22054517 0.09367678 0.54078114 0.63749135 0.2684677 -0.009715449 0.37360793 0.5440712 0.36520082 0.3489377 0.18059786 0.15334252 0.15071112 0.49111155 0.01135236 -0.03247571 0.065512344 0.05541128 0.56381226 0.5558964 0.33173782 -0.0022783726 -0.070135005 0.0051087113 0.23378013 0.54703516 -0.07767583 -0.08936909 -0.3813284 0.42136475 0.52956235 0.4665035 0.58765364 0.6278448 0.29961613 0.48588848 0.6049007 0.21467689 0.16788623 0.18205652 0.26932657 0.19070525 0.29476738 0.6390325 0.5770147 0.3171778 0.34484455 0.33674625 0.6530964 0.59216285 0.48429257 0.23073804 0.57544565 0.47915965 0.4425255 -0.31995854 -0.25870878 0.13785917 0.334972 -0.20108977 -0.42944115 -0.60810125 0.16255412 0.14951426 0.6540973 0.5279029 0.2692635 0.056703415 -0.04428483 0.6967735 0.6406429 0.5787505 0.18536496 0.20157814 0.25635433 0.20222095 0.7348629 0.6983755 0.6730695 0.50024366 0.36064655 0.012427427 0.27720258 0.26200873 0.23289654 0.7575388 0.7418785 0.6747445 0.59306777 0.28170508 0.2733886 0.30339807 0.7207721 0.24429084 0.03504458 0.12964521 0.26268935 0.26334655 0.28151023 0.38730335 0.3581643 0.31677422 0.2801337 0.29479077 0.19127403 0.22178845 0.21808143 0.33112648 0.31197494 0.29238415 0.47887486 0.051478192 0.19432239 0.28273535 0.27613398 0.6281559 0.57193947 0.70925975 0.5209908 0.7274908 0.7523672 0.72391343 0.70728016 0.7338373 0.7504015 0.763417 0.7661872 0.6002141 0.6563871 0.68123084 0.6235138 0.7170366 0.4461468 0.5183456 0.5447546 0.53220534 0.5160832 0.5929481 0.7427918 0.7749526 0.7733842 0.32832107 0.46078888 0.7613935 0.3110265 0.71643114 0.6058271 0.5968276 0.48964062 0.37408167 0.15937358 0.14204158 0.14653572 0.15713574 0.2184287 -0.085532874 -0.0873101 0.6451038 0.6149161 0.5927508 0.31566805 0.18004052 0.5531032 0.5983241 0.5097216 0.5350958 0.114468165 -0.003666848 0.17161605 -0.0232009 0.15061574 0.364997 0.2678949 0.4675168 0.09932293 0.57379735 0.5990299 0.64395493 0.63761735 0.30524197 0.60484374 0.34150064 0.1491362 0.47203344 0.5154884 0.23230937 0.68215513 0.660728 0.42588204 0.28621694 0.6731137 0.6805364 0.5422169 0.3059251 0.65441597 0.5653813 -0.019612273 0.51963687 0.5151995 0.12030165 0.6447193 0.12927806 0.70097756 0.7648915 0.35336873 0.7838405 0.7771063 0.25436524 0.38043112 0.27679586 0.77998376 0.7617323 0.5131191 0.30462825 0.36886734 0.31583092 0.24746552 0.28266296 0.30894023 0.26220477 0.31360108 0.58505523 0.7353796 0.68043816 0.40444922 0.45908123 0.74180484 0.38703287 0.73464644 0.720019 0.59705937 0.37199265 0.3804251 0.71026826 0.7110182 0.72570205 0.7011857 0.5507464 0.60291636 0.57045317 0.614763 0.6968752 0.41006914 0.48925185 0.41112635 0.4100333 0.5477225 0.6872946 0.721864 0.742322 0.28013036 0.7114043 0.18823959 0.32166666 0.6093137 0.5974605 0.5764823 0.5152343 0.16325872 0.16617705 0.16879413 0.15279664 -0.24111918 0.51305926 0.5796429 0.5987722 0.2568603 0.31585446 0.52205145 0.1410746 0.28381723 0.4098599 0.24836072 -0.11279245 0.08481926 0.082251154 0.024176715 0.26068532 -0.0035854653 0.47317344 0.037897166 0.5826352 0.5979801 0.06656094 0.6246286 0.23753396 0.4748519 0.58650446 0.07329514 0.3387962 0.43810457 0.59914905 0.21238998 0.5973026 0.18846676 0.24467944 0.558434 -0.07207507 0.46926922 -0.08954467 0.43270317 -0.0478641 0.588093 0.6745397 0.04681807 0.7785131 0.7718395 0.73660207 0.09268011 0.76722187 0.7321247 0.15015326 0.27780533 0.35223585 0.62406904 0.2007196 0.41583502 0.35423815 0.22248197 0.4915746 0.44800025 0.73904765 0.402885 0.77117705 0.77512884 0.47575712 0.7567022 0.7243768 0.641402 0.47882956 0.40165904 0.43622914 0.70879984 0.6600436 0.62568545 0.4767552 0.50241435 0.45931762 0.42561543 0.21067886 0.3815204 0.47561616 0.64080036 0.68379736 0.16077632 0.26043585 0.6276539 0.1389951 -0.09335425 0.57935745 0.5712069 0.5377876 0.4774052 0.07301609 0.16261286 0.32794213 0.56604165 0.5023693 0.24065247 0.19187829 0.34424782 0.14826405 0.115831114 -0.017163299 -0.004811194 -0.007488899 0.0010608025 0.045677863 0.27353838 0.44540662 -0.015776008 0.47043967 0.062475957 0.55891365 0.032081082 0.48308152 0.5276269 0.0706891 0.5272836 0.43852377 0.024683777 0.43153274 0.41530728 0.06858949 0.07059839 0.43464512 0.53539777 -0.08547746 0.6463993 0.05782824 0.70268834 0.72081244 0.65400827 0.62293786 0.66596854 0.39285433 0.43851465 0.42549926 0.5813629 0.1453524 0.35876897 0.3771119 0.4623555 0.21925825 0.5652982 0.58915377 0.5350015 0.4961059 0.6488248 0.31560278 0.2738374 0.77620447 0.4295302 0.41989905 0.76327413 0.71807957 0.5911113 0.41258842 0.42307964 0.44720244 0.1555563 0.23673208 0.33297077 0.14740023 0.0046041757 -0.09546621 -0.03607302 -0.030600198 0.4938153 -0.21332316 -0.04288595 0.21472587 0.47599643 0.31313083 -0.05305116 0.20290807 0.328641 0.19552726 0.27433845 0.17781365 0.11368303 0.12544858 0.10725418 -0.07408666 -0.0006361045 0.0089499755 -0.01974292 -0.03814066 0.43641052 -0.02198883 0.2503537 0.39299762 -0.007913545 0.16528426 -0.049073927 -0.14056155 -0.0054003 -0.16738851 0.34950426 0.22916509 0.44042563 0.13461567 0.43727148 0.15465242 0.28512117 0.50152326 0.5665755 -0.45817888 -0.37276685 0.15659036 0.63609135 -0.04978963 -0.44433078 -0.35060793 0.56279445 0.29910082 -0.33840573 0.35998753 0.5841704 0.5168766 0.4869505 0.45183352 0.38133428 0.01661487 0.4896323 0.12973754 0.24446613 0.40203017 0.43942094 0.4311363 0.53228146 0.47785342 0.18467289 0.2583933 0.20002852 0.42958456 0.4545881 0.46155578 0.4449151 0.5164734 0.6178748 0.63492703 0.59743565 0.61682445 0.5043648 0.29408792 0.5738171 0.6141407 0.71439445 0.69045144 0.42403737 0.41029102 0.35677406 0.4397812 0.44346806 0.43460363 0.6995097 0.26737493 0.28801993 0.3195096 0.2529708 0.30545637 0.3297951 0.35504538 0.17738804 0.29565623 0.37056768 0.062779054 0.08592222 0.19596878 0.37535682 0.018555306 -0.019841999 -0.027099743 -0.015659362 -0.05353372 0.32129404 0.2785877 0.15260236 -0.00059539545 -0.0022579208 -0.080727644 -0.15706643 0.1410971 -0.01003442 -0.18311626 0.15476443 -0.13601302 0.15932497 0.19255197 0.19666108 0.20514175 0.314848 0.18024266 0.117912404 0.38864553 0.3025072 -0.01319395 0.020300366 0.1720739 0.267238 0.16884564 0.13840131 0.16979997 0.27109292 0.051722907 0.04013252 0.116764784 -0.0903074 0.34375268 0.41615173 0.44671822 -0.032869443 0.37171406 0.45988208 -0.4140619 0.6044478 0.49123698 0.008247629 0.38631225 0.571303 0.43868944 0.51591784 0.51207936 0.398061 0.51061684 0.47938287 0.46470135 0.12486777 0.5184062 0.26465002 0.013499171 0.18673483 0.36583838 0.60942173 0.37037116 0.25296265 0.4470513 0.48427558 0.48246568 0.3976139 0.5190723 0.6036655 0.6382498 0.38185984 0.33612064 0.5893839 0.4830476 0.4837137 0.45182365 0.4090335 0.36653417 0.4611839 0.45091698 0.87911236 0.8549509 0.807529 0.86538863 0.8541801 0.8052753 0.7542075 0.7499222 0.82561505 0.7752331 0.6784848 0.624829 0.735873 0.6594919 0.49354967 0.47952586 0.4736005 0.5057789 0.4703216 0.41614884 0.44345078 0.3362859 0.28340688 0.22076441 0.23165113 0.36755368 0.36956236 0.38265267 0.35825083 0.36935842 0.37781492 0.20544992 0.17636052 0.07263923 0.38649678 0.39381126 0.08875274 0.14595392 0.13039231 0.08159623 0.019533629 0.06593344 0.36507058 0.22093052 0.021916747 0.40639415 0.32196313 0.23748095 0.21609583 0.38045192 0.39053595 0.1324313 0.114112176 -0.08653486 -0.03565887 -0.05368669 -0.09289627 0.14845037 0.4069785 0.18526588 0.47065607 0.42568517 0.123509705 0.48569736 0.16943423 0.48368552 0.14961727 0.01985902 0.0781661 0.5267745 0.47382724 0.36085254 0.2349843 0.16075657 0.07533697 0.4850511 0.4774309 0.036253367 0.1556208 0.09616509 0.104607984 0.19415891 0.1807379 0.2009568 0.13791655 0.3504883 0.07281265 0.48563913 0.5665015 0.5551847 0.588552 -0.23198752 0.5138386 0.5142931 -0.091256574 0.3577164 0.12485753 0.4950906 0.503575 0.53251314 0.53124464 0.41187227 0.32586628 0.14669737 0.43699878 0.50411606 0.47618598 0.4682892 0.5029366 0.54856116 0.55128235 0.48248407 0.35809338 0.30730143 0.5118428 0.5198431 0.5030346 0.447245 0.53749025 0.5908179 0.54531515 0.48835045 0.41004604 0.5400821 0.5195083 0.47952247 0.43765953 0.78716177 0.89225656 0.8863588 0.85603034 0.79113084 0.8279262 0.81235784 0.88534915 0.7351924 0.6825347 0.8514089 0.64203656 0.60000956 0.7602845 0.5155359 0.45799097 0.3586512 0.43078882 0.138944 0.3989675 0.27974135 0.21416384 -0.11326779 0.36053777 0.39438617 0.23510118 0.4224413 0.14328203 0.39475477 0.36752504 0.37930417 0.053540118 0.32400733 0.42619315 0.44984847 0.24315089 0.39135528 0.20402834 0.34227285 0.19921067 0.15926875 0.03938646 0.025083758 0.22726944 0.4768136 0.5638515 0.54277706 0.30559716 0.45715126 0.5480045 0.5696196 0.37665588 0.44972843 0.5461439 0.3320626 0.41069287 0.21883623 0.13016006 0.58212924 0.51597154 0.3034306 -0.18142377 0.55446064 -0.057127174 -0.044168968 0.52643824 0.48669097 0.0064455345 0.038938176 0.18129265 0.077986546 0.11258541 0.14630911 0.62780464 0.45458925 0.4718525 -0.30338043 0.63749915 0.64851034 0.56895065 0.40825438 0.5720009 -0.11306016 0.6049987 -0.06951067 0.59504336 0.5976026 -0.120236814 0.56697804 0.58846575 -0.10123801 0.17700154 -0.11752717 0.023520222 0.0016028695 0.3165226 0.22770776 0.13374548 0.1461896 -0.07929809 0.14717144 0.22532171 0.19730496 0.24272466 0.34331328 0.47393942 0.2965692 0.29598925 0.28451583 0.3453912 0.4191172 0.37699163 0.28359482 0.45651722 0.503544 0.43895322 0.42279005 0.41509497 0.36083972 0.4531737 0.5013512 0.5256859 0.5015513 0.45992815 0.50394094 0.4953255 0.5212716 0.46023428 0.4325952 0.52968013 0.54751337 0.50018924 0.44614893 0.7927248 0.77815175 0.7923111 0.8622616 0.85315096 0.7905898 0.8217162 0.83225715 0.87053525 0.6799495 0.8681321 0.63104016 0.5110153 0.46854335 0.50237656 0.46819925 0.40829578 0.41526496 0.37170073 0.34534124 0.40364116 0.30280346 0.30046165 0.4164259 0.12308645 0.35053104 0.33353654 0.30647346 0.41213858 0.42386025 0.3725055 0.2804486 0.3