# vtk DataFile Version 2.0
Really cool data
ASCII
DATASET POLYDATA
POINTS 8377 float
-3.6400366 34.11315 7.6835213
-3.6474695 34.001774 8.663608
-3.7701726 34.684597 7.624151
-3.880615 34.80194 8.499269
-3.742057 34.894016 9.119613
-3.825614 35.519867 7.6925187
-3.956911 35.75772 8.320471
-3.804891 35.495495 9.041162
-3.804918 36.076492 7.8690467
-3.8379698 36.221302 8.576408
-3.7544546 36.039097 9.009208
-2.6909468 32.263813 8.920199
-2.7367382 32.33087 9.365421
-2.7257514 33.146572 0.1933714
-2.8413048 33.15005 0.5083182
-2.8354728 32.783463 1.6241802
-2.7522461 32.73079 2.1422672
-2.829858 32.81262 7.767547
-3.0034986 32.656536 8.624941
-2.922823 32.685257 9.422691
-2.6981225 32.864555 10.056004
-2.9667716 33.847523 -0.14673492
-3.1395426 33.672504 0.5283164
-3.0535629 33.487804 1.3803692
-2.8016284 33.325592 2.1638372
-3.2233114 33.986576 6.925599
-3.5199738 33.99675 7.525493
-3.3953834 33.423138 8.579156
-3.1445315 33.216858 9.579474
-2.9707649 33.172977 9.876395
-3.0238793 34.506126 -0.22411141
-3.2292738 34.578625 0.3888317
-3.1020265 34.449703 1.1275126
-2.8113363 34.429836 1.815987
-2.8554113 34.904865 6.185597
-3.2981462 34.618835 6.750451
-3.3813913 34.553513 9.506823
-3.265308 34.77236 9.742186
-2.9051595 35.004295 -0.18186069
-3.0121121 35.114754 0.45764518
-2.8685083 35.04928 1.1847017
-2.7488496 35.47717 6.2070975
-3.2925227 35.160885 6.723276
-3.5399845 35.659832 9.416857
-3.1801653 35.64879 9.720098
-3.099356 36.093628 6.8625975
-3.5097215 36.3054 7.5189595
-3.3257456 36.430954 9.355979
-3.0100517 36.269024 9.677892
-3.252706 36.907127 7.97015
-3.331447 36.975628 8.567941
-3.1156917 36.960003 9.08417
-2.0835145 32.21385 0.89153624
-2.207745 32.05702 1.5911599
-2.176252 32.094257 2.2529836
-2.043225 32.269066 2.7134843
-2.134772 32.04213 7.9938893
-2.1401997 31.915442 8.554507
-2.282921 32.045708 9.38228
-2.1389067 32.226337 9.943585
-2.2420154 33.124603 -0.09287515
-2.4270906 32.68802 0.60063
-2.5908132 32.329975 1.7086442
-2.4486349 32.445435 2.5120635
-2.2652779 32.446815 2.7224185
-2.1500733 33.036976 6.636169
-2.1119058 32.43955 7.403389
-2.6324856 32.36771 9.625712
-2.3457034 32.68086 10.163643
-1.9618545 32.840843 10.600002
-2.3211977 33.87171 -0.6380969
-2.4737809 33.629448 -0.42877778
-2.5066454 33.67495 2.6360397
-2.4455333 33.66483 10.378815
-1.9405072 33.48535 10.828987
-2.3452227 34.47787 -0.72978413
-2.6307132 34.7732 -0.57660437
-2.3523622 34.358223 2.4069564
-1.8446631 34.772102 3.0146658
-2.426308 34.49813 5.724318
-1.7432978 34.421806 10.945809
-2.180032 35.037968 -0.6953664
-2.426284 35.287663 -0.37109104
-2.5947404 35.576004 0.36656258
-2.4118958 35.467728 1.292226
-1.6949971 35.392612 2.4997907
-2.5712025 35.69839 9.985666
-1.833839 35.04722 10.795009
-1.954523 35.744823 -0.19874287
-2.2803373 35.787888 0.41803393
-2.0782943 35.81198 1.2600808
-1.6606013 36.41751 5.1525373
-2.417669 36.53077 6.681648
-2.2419267 36.13859 9.919623
-1.7585921 36.782047 5.8274775
-2.3900669 37.10093 7.543811
-2.7217634 37.3124 8.337854
-2.545604 37.072094 9.185609
-1.8883731 46.954075 6.832355
-1.9446267 46.81902 7.3724766
-1.9122849 47.02152 8.313475
-1.5793252 46.374393 11.836404
-1.6087539 46.763824 12.183946
-1.7060485 47.53739 6.263041
-1.9964337 47.451595 6.692358
-2.2205057 47.43758 7.4926023
-2.092316 47.641453 8.401043
-1.9802916 48.046635 9.601307
-1.7492653 47.66683 11.315227
-1.6417687 47.51622 12.298581
-1.6815865 48.07559 6.224202
-2.0648007 48.318985 6.8641458
-2.1678689 48.230827 7.664611
-2.126887 48.36997 8.444041
-2.0143502 48.348366 9.348546
-1.8531353 48.58363 10.332923
-1.764514 48.303844 11.486907
-1.6428493 48.0675 12.342657
-1.6075292 49.551147 6.1339765
-1.7491422 49.48405 6.5402613
-1.8758461 49.291344 7.6915975
-1.9153041 49.162403 8.622527
-1.7994696 49.34477 9.608592
-1.7410367 49.08109 10.304459
-1.6021209 50.107204 6.5908885
-1.6167178 50.21235 7.2419662
-1.5937672 50.08408 8.47581
-1.6211748 50.00721 9.101046
-1.6256508 32.16291 0.8043955
-1.5743846 31.859453 1.5607284
-1.6635256 31.885204 2.2167
-1.4867013 31.963345 7.761798
-1.537166 31.662949 8.586013
-1.3423741 31.778584 9.475054
-1.4537733 32.08377 10.0229645
-1.4874688 32.641888 0.25095645
-1.5342938 32.453453 0.452797
-1.6605928 32.38996 2.9875672
-1.8169923 32.594414 7.0369835
-1.5209825 32.434525 10.380703
-1.3431535 32.926285 10.822478
-1.6766182 33.850494 -0.71422863
-1.4930196 33.435257 -0.48449922
-1.2757638 33.511665 11.182889
-1.7426463 34.474064 -0.87148505
-1.3101482 34.661236 4.6750827
-1.1857122 34.498108 11.287357
-1.4993511 35.19075 -0.76912624
-1.6395582 35.660946 -0.53743756
-1.549831 35.628063 4.6796126
-1.3241277 35.206345 10.925491
-1.4990711 35.848923 -0.25427523
-1.3422453 36.16126 0.32046476
-1.425199 36.223785 1.2919283
-0.81681323 36.588345 2.1089044
-1.179808 35.832943 3.0618768
-1.3625344 36.421524 4.884544
-1.542632 36.172928 10.047202
-0.77746356 36.949173 4.9161105
-1.5536873 37.045578 6.123907
-1.3630505 37.4326 8.207178
-0.621343 38.23781 7.119136
-0.94068825 45.22476 11.853072
-0.90888786 45.204185 12.289396
-0.7784009 45.30835 12.82566
-0.9891414 46.336243 6.8692613
-1.1848683 46.218605 7.675984
-1.0293933 46.10839 8.565886
-0.97269505 45.891026 10.847424
-1.3406632 45.855587 11.644208
-1.2260185 45.65681 12.414164
-0.9351741 45.735195 13.186973
-1.296785 47.003796 6.232175
-1.3589442 46.587715 6.7110505
-1.6970652 46.58054 7.1212015
-1.4375701 46.429432 8.577738
-1.2546488 46.62149 9.567722
-1.5074853 46.9858 10.699508
-1.4325184 46.485897 11.280033
-1.4112047 46.339874 12.6350975
-1.2502282 46.499607 13.152715
-1.2743131 47.547497 6.0090113
-1.4251188 47.43881 12.509617
-1.2618257 47.35092 13.160503
-0.72701097 47.93291 14.146954
-1.2577627 48.70364 5.855383
-1.4788339 48.426094 12.451569
-1.1552753 48.372868 13.139041
-0.8316998 48.620182 14.014094
-0.8268795 49.415417 5.344247
-1.2567558 49.643284 5.753072
-1.558637 49.001522 6.2765074
-1.419786 49.05017 11.515549
-0.8494973 49.48382 12.488113
-0.84825873 49.34845 13.274544
-0.7307205 49.17434 13.902791
-0.9177067 49.973015 5.409003
-1.224291 50.30352 5.912765
-1.4191648 50.48772 6.45084
-1.3614393 50.542953 7.355116
-1.302631 50.253086 8.806018
-1.2240424 50.17162 9.468294
-1.2021155 50.03428 9.999131
-0.63896406 49.8483 13.04751
-0.9993875 50.781963 6.023499
-1.0647714 50.930805 6.585229
-1.0714967 50.95518 7.1327405
-1.0089312 50.90794 7.9303427
-0.3482491 32.266876 0.86771894
-0.36040282 32.01047 1.4711624
-0.91512907 31.940405 2.3617399
-0.7625102 31.722185 8.050484
-0.9216544 31.605299 8.516526
-0.8990889 31.788544 9.61091
-0.7003993 32.026062 10.019814
-0.86912835 32.745083 0.10579777
-0.5838595 32.43951 0.37566647
-0.76620984 32.60069 3.4086637
-0.77472275 32.709072 6.9595776
-0.40960243 32.74488 11.002319
-0.7591527 34.005703 -0.7312176
-0.30720514 33.337353 -0.20940623
-0.67500466 33.870686 5.0489616
-0.3098499 33.473557 6.0704346
-0.45664275 33.55106 11.389861
-1.0658493 34.8288 -0.84169656
-0.5745004 34.33501 11.42366
-0.7718177 35.23087 -0.64329135
-0.78892463 35.656475 -0.44548365
-0.5995608 35.108086 11.185932
-0.9875727 35.815094 -0.36276567
-0.57157624 36.42559 0.65795934
-0.41702995 36.132973 10.159922
0.10791463 36.82599 0.96585464
-0.2922688 36.841312 1.4605561
-0.050361514 37.127583 2.5271084
-0.34064516 36.985764 3.6782317
-0.37850082 37.276794 4.350748
-0.2621756 37.691616 8.574236
-0.13199472 36.793465 9.42397
-0.2952261 38.03967 5.6855683
-0.4244169 38.276566 6.325653
-0.3230602 38.629868 7.175198
-0.13531217 38.215553 8.278331
0.16495338 38.27072 8.727055
0.12355578 39.052074 6.5419283
0.19823706 39.083725 7.523887
0.2533603 39.01432 8.035748
-0.093984455 44.961216 11.604318
-0.5475197 44.997993 12.420637
-0.3334644 45.142857 12.965071
-0.16907775 46.04463 7.109415
-0.4434254 45.974445 7.396437
-0.41696835 45.931526 8.298999
-0.23818186 45.785263 9.501653
-0.52053595 45.6123 10.519842
-0.46875608 45.497704 13.4164095
-0.2746633 45.866104 13.823612
-0.28458288 46.84481 5.9901204
-0.482653 46.562794 14.025712
-0.19820184 47.92633 5.2392006
-0.1512579 47.372986 5.504729
-0.07669258 47.243004 14.398025
0.08265958 47.771637 14.781136
-0.38143057 48.634407 5.190277
-0.34920853 48.58383 14.603834
0.003401786 48.45594 14.877144
-0.4567741 49.648636 5.206556
-0.5469731 49.704628 13.87943
-0.33617344 49.52243 14.451975
-0.012918919 49.823395 14.910547
-0.18232076 50.27855 5.2315063
-0.44523695 50.57119 5.470178
-0.16243081 50.11047 10.94232
0.16013521 50.355835 11.1817255
-0.5030471 49.946594 12.368419
-0.43276718 49.999454 13.625314
-0.0028721392 50.312496 14.538479
0.22497219 50.316547 14.992645
-0.4651226 51.00404 5.804436
-0.4515936 51.33862 6.549014
-0.27531022 51.377705 7.2433906
-0.36778504 50.973797 8.273499
0.26937312 50.897682 13.888952
0.3311483 50.812393 14.698576
0.3523916 63.974693 8.093906
0.3026631 64.43965 7.594995
0.33481222 64.522606 8.344254
0.3308824 65.0601 7.7662897
0.3800829 65.167595 8.298065
0.071711004 32.16434 7.9906173
0.56245506 32.266026 8.704621
-0.027223334 31.958221 9.143025
0.7851905 32.55459 3.4550471
0.25351223 33.075356 3.9291565
0.13551508 33.326206 5.9408445
0.62792337 32.65176 10.634455
0.27570224 32.836384 11.005798
0.41896924 33.74258 -0.36630186
0.37477708 33.470146 11.221711
0.27170354 34.655758 11.250878
0.47133332 35.468334 -0.27083737
0.20216013 35.34034 10.887701
0.5857322 36.05788 -0.025704622
0.16102971 36.51456 0.51902634
0.7913842 36.290974 10.111478
0.49694842 37.150578 1.530623
0.42528874 37.305138 2.5755112
0.23813912 37.53957 9.102033
0.5933888 37.81167 3.8475044
0.70226955 38.487488 4.975821
0.7741144 38.279915 9.02402
1.179002 39.7136 5.778412
1.0217818 39.930946 6.4026294
1.06645 40.23324 7.442366
0.9081807 45.20279 11.132992
0.13267076 45.13987 11.219743
0.38074765 44.870434 12.698839
0.30245218 44.98028 13.160969
0.20775427 46.24278 6.6751585
0.42535147 45.831543 7.764432
0.56219506 45.772602 8.865949
0.8594344 45.72237 9.493454
0.4443224 45.941696 14.062851
0.4761991 47.26132 5.3244877
0.46415034 46.93677 5.870864
[...]
POINT_DATA 8377
SCALARS features_00 float 1
LOOKUP_TABLE default
0.6272353 0.6328812 0.64176613 0.68098783 0.6594012 0.69306946 0.74274755 0.6972291 0.74422616 0.762367 0.7253423 0.6340029 0.62016314 0.81422794 0.8331357 0.8073012 0.7766285 0.62873113 0.62395346 0.60547304 0.58777565 0.9163779 0.92648923 0.8638481 0.7730238 0.56688654 0.6158645 0.61993587 0.5854034 0.57571095 0.9333669 0.95438504 0.88882285 0.73363566 0.45094055 0.5482445 0.60743725 0.59096426 0.8884767 0.8776169 0.7838583 0.41567507 0.5457361 0.67257357 0.62258494 0.5284836 0.6880863 0.7009823 0.63931 0.7329178 0.77433777 0.7315162 0.73861873 0.7597041 0.73896265 0.7111964 0.6433166 0.6610417 0.63729024 0.62396944 0.75931895 0.7683774 0.7818953 0.7456378 0.71958756 0.5037496 0.59018314 0.6166586 0.6040317 0.60919625 0.8447653 0.8418005 0.700626 0.5645707 0.60371566 0.8518295 0.87013674 0.6395311 0.43134668 0.3712336 0.5891174 0.8074399 0.8200329 0.79732215 0.6860877 0.46483257 0.55484456 0.5338919 0.7268429 0.73903656 0.62550104 0.16841128 0.3902051 0.5207933 0.16763312 0.4968239 0.6809932 0.64019465 0.67792904 0.67060506 0.61000574 0.5193034 0.4902511 0.65414536 0.66981363 0.66735893 0.5679716 0.38353324 0.37826392 0.41194552 0.6269564 0.6199266 0.59722114 0.48630375 0.3937975 0.34734705 0.33678705 0.36471015 0.6108254 0.5962608 0.51343507 0.4278031 0.3759241 0.3476525 0.6159793 0.56600326 0.45046377 0.40791428 0.68883526 0.7196944 0.7005073 0.61189246 0.6787886 0.67524153 0.6473329 0.66278076 0.66801286 0.6464869 0.5201039 0.63275784 0.64126325 0.76491964 0.70434177 0.65467215 0.77950317 0.36020592 0.6302804 0.7117394 0.69833875 0.18380795 0.53810775 0.65296215 0.5826143 0.5063976 0.31251356 0.19017278 0.1434588 0.4194485 0.09780699 0.14004247 0.34005952 0.25822967 0.5921375 0.5926734 0.5802981 0.62562716 0.60295975 0.51913655 0.5123526 0.56358564 0.59097135 0.5789404 0.6476753 0.65090895 0.66205597 0.5460722 0.42036074 0.41141388 0.489164 0.5525204 0.55395263 0.63475245 0.429349 0.46558124 0.46065533 0.59817266 0.3510105 0.39618284 0.42697555 0.6274539 0.62411165 0.5986775 0.3156175 0.36213815 0.38508862 0.40677583 0.6532705 0.65465486 0.64251053 0.5790622 0.43473822 0.38134503 0.37678313 0.3762078 0.6884178 0.67579377 0.63525945 0.5630632 0.53398174 0.5726009 0.6367624 0.6422914 0.68975663 0.69301033 0.69477487 0.6086513 0.57417125 0.3842269 0.42372513 0.7109514 0.644711 0.5461186 0.19510859 0.24516562 0.7088359 0.6625048 0.6714105 0.5797214 0.5501876 0.5935132 0.57124186 0.43598425 0.4284299 0.32234442 0.31620795 0.19093552 0.07094237 0.070661336 0.23956394 0.30836076 0.20014557 0.25392094 0.30088115 0.2602331 0.2623996 0.35485005 0.36330366 0.3430103 0.52696526 0.56963193 0.54553866 0.58077574 0.5718949 0.51856214 0.43441826 0.4663569 0.5394361 0.5014175 0.59612966 0.51337683 0.60023737 0.5903685 0.45200628 0.4213819 0.6263654 0.43917027 0.42821145 0.65566385 0.40366268 0.4247759 0.43876374 0.71173394 0.71748126 0.3410197 0.2895423 0.36785045 0.39585504 0.44164443 0.4574508 0.75295484 0.76687187 0.73105234 0.5551208 0.44933546 0.46722656 0.69753873 0.7180588 0.75282276 0.7655735 0.7778859 0.56821394 0.5703272 0.6850381 -0.040637314 -0.10857333 0.14463386 0.7533297 0.74001324 0.3786527 0.699368 0.60411227 0.3780634 0.5258113 0.35149568 0.3566515 0.40639 0.2416504 0.16598366 0.22826046 0.07150876 0.12845713 0.30204767 0.3039715 0.43419433 0.5745286 0.3359424 0.47042847 0.48706943 0.47461367 0.5919602 0.5175594 0.4578359 0.42258823 0.38647258 0.58674145 0.5777572 0.58531487 0.60430634 0.58932745 0.40972137 0.6478895 0.39406222 0.70312995 0.4350287 0.7569883 0.3327119 0.46765125 0.44581354 0.8179905 0.8411876 0.819842 0.7261561 0.5672101 0.32397196 0.4398499 0.4886545 0.4944037 0.49212986 0.8156357 0.6312213 0.6426563 0.645574 0.64111435 0.561683 0.591622 0.62090635 0.6278039 0.5298738 0.5628597 0.59458244 0.42545784 0.3280251 0.5564002 0.31628215 0.558184 0.5946771 0.67136574 0.70543337 0.6670872 0.77071464 0.7533915 0.7382453 0.7342208 0.77426386 0.78302777 0.7667308 0.7408991 0.7723342 0.7794063 0.76629376 0.4651936 0.55663556 0.6677499 0.2522658 0.33347562 0.6080998 0.6599437 0.03128875 0.006581273 0.06552866 0.22911553 0.63210654 0.29128122 0.34985483 0.45563668 0.46769005 0.64384687 0.20125948 0.033436537 0.5556164 0.64275384 0.08212367 0.19404016 0.46932364 0.5022636 0.2927012 0.4095173 0.48430943 0.16094205 0.19124632 0.34661794 0.21389166 0.2253188 0.11507284 0.00846225 0.050086018 0.30861074 0.56638765 0.5119606 0.6947725 0.6962878 0.5807803 0.71037745 0.7529352 0.8419437 0.6690165 0.71344066 0.2547275 0.29389212 0.37253216 0.10024435 0.6053178 0.65766335 0.72246397 0.8336061 0.8456499 0.55729866 0.48318866 0.42249566 0.40100175 0.07425571 0.55867463 0.643917 0.73120064 0.8525231 0.8690876 0.86877716 0.59155035 0.30293953 0.6041231 0.77744836 0.8063535 0.8244342 0.6380574 0.7147509 0.7659004 0.6963512 0.74268377 0.3445326 0.7957406 0.24839385 0.29105836 0.39223933 0.8439489 0.75895786 0.7251024 0.57495755 0.3452452 0.51644474 0.4321898 0.47299683 0.5287417 0.49078137 0.49727303 0.62122816 0.6135187 0.60236 0.5218189 0.5305518 0.4811809 0.387237 0.29551458 0.3691534 0.5294695 0.62662494 0.5293767 0.5392443 0.49892873 0.41608277 0.31767282 0.23860568 0.3196497 0.5096989 0.5714772 0.532702 0.5266085 0.4648561 0.3838867 0.31504494 0.27521074 0.18754978 0.43799818 0.5604924 0.46176946 0.42251578 0.37769407 0.2983971 0.11822321 0.27397972 0.23851056 0.09214122 0.17621186 0.21905057 0.10093479 0.2494525 0.26792836 0.57015574 0.19728704 0.29836458 0.59871715 0.6238163 0.68411255 0.49207807 0.65555453 0.46888 0.73412955 0.71817005 0.702734 0.72233915 0.7256044 0.7147242 0.6924875 0.6401514 0.66647136 0.43274647 0.58980346 0.6199548 0.14426261 0.15146752 0.21352652 0.41349143 0.5768757 0.6654819 0.29236308 0.121601395 0.07832715 0.113596536 0.14300194 0.6699307 0.65757686 0.42424977 0.31089342 0.13747013 0.54415774 0.5806892 0.44713616 0.4185509 0.551803 0.3875978 0.23484945 0.318671 0.20201664 0.15883541 0.2566313 0.3423813 0.21960182 0.09002656 0.29550314 0.34348208 0.1738569 -0.09588088 0.2340332 0.1638574 -0.010786325 0.36182028 -0.12459057 0.4856772 0.6367184 -0.08982779 0.69724584 0.8119886 0.41293836 0.6400649 0.8187127 0.8368796 0.8816072 0.508252 0.5927089 0.57387525 0.39245206 0.42793545 0.46558306 0.37584338 0.40395725 0.6062124 0.63398933 0.67007124 0.7076764 0.7721988 0.5684013 0.83252037 0.8442267 0.26666713 0.056762993 0.1987127 0.227919 0.2823286 0.29248744 0.5030206 0.862552 0.69942945 0.50247747 0.35292244 0.19966976 0.17683612 0.27576047 0.30668366 0.32968387 0.814986 0.8304542 0.7099484 0.7542363 0.54242605 0.21930712 0.051425174 0.013931677 0.22674966 0.44017005 0.44054025 0.52960163 0.67270184 0.73464394 0.7588179 0.7795354 0.76510787 0.8356955 0.08510688 0.5158458 0.5435165 0.56831145 0.7007649 0.7830674 0.38978487 0.1501517 -0.00967972 -0.042619172 0.5680206 0.5856625 0.80476034 0.7990762 0.6516195 0.6179818 0.31276083 0.32662427 0.11472569 0.59211254 0.3247016 0.13729692 0.2883229 0.38149235 0.47974837 0.468775 0.38754326 0.40903008 0.4218784 0.44368482 0.47678864 0.51256055 0.48078498 0.41468674 0.30737817 0.36821157 0.40942502 0.5203225 0.45791313 0.47066528 0.49409172 0.5255385 0.26318932 0.17623568 -0.05392175 0.25284296 0.5062596 0.4905315 0.5176786 0.26733685 0.49947956 0.5030373 0.2955271 0.5090447 0.4922299 0.40358856 0.24590674 0.316077 0.34213337 0.31560835 0.04133652 0.20604551 0.11417989 0.563592 0.45327517 0.041552797 0.3526426 0.5608164 0.5878006 0.5967708 -0.03206899 0.031598367 0.52030504 0.6067931 0.6587316 0.6650958 0.4741295 0.084045775 0.14672484 0.5701751 0.71444464 0.74478865 0.715152 0.53443533 0.27670336 0.47943616 0.6301552 0.72294855 0.7456374 0.6993421 0.5933639 0.46920568 0.6459594 0.6361857 0.6024896 0.6938953 0.592715 0.121878974 0.12580943 0.25170836 0.49216524 0.6357379 0.098560356 0.13736577 0.14375627 0.6403901 0.46940535 0.38323906 0.12729436 0.6256628 0.5068021 0.48054194 0.5700954 0.5777621 0.47966057 0.48900795 0.45850265 0.4098724 0.43852305 -0.36778277 0.13219684 0.36465606 -0.024680145 0.10339351 0.15344173 0.3248336 0.27461296 0.1956717 0.16568567 0.30280143 0.34141454 0.31572247 0.29368773 -0.01590842 0.404476 0.34423992 0.33904505 0.25848463 0.15400894 -0.28706455 -0.23533493 0.6038741 0.3583544 0.33833462 0.27960312 0.17640394 -0.23376495 -0.15863493 0.4928658 0.7840055 0.22854021 0.36071676 0.1806041 0.9080782 0.82916355 0.30865505 0.38723505 0.42207575 0.37805456 0.32954544 0.7720642 0.9216471 0.9397454 0.6135533 0.63580084 0.62567675 0.5819115 0.39703602 0.41499174 0.39451438 0.35749117 0.30926156 0.5258969 0.5012393 0.38902938 0.55149996 0.32304403 0.36507192 0.38291436 0.35307857 0.34749213 0.2717407 0.48809612 0.5928092 0.61876976 0.619987 0.28511482 0.3044064 0.31890988 0.30065322 0.46651694 0.14020805 0.12865998 0.16402566 0.11761879 0.5026095 0.80948067 0.236511 0.22496536 0.24691871 -0.0062442534 0.120230846 0.8538901 0.050227042 0.10664694 0.060090024 0.79508847 0.5717656 0.029411405 -0.058771893 0.25746948 0.35914254 0.43579674 0.684368 0.73440635 0.8430389 0.8117 0.6955013 0.55719715 0.013357401 -0.2517378 -0.07302974 -0.021310069 0.49849355 0.57779336 0.5958395 0.82488704 0.79688936 0.7376424 0.61992365 -0.08488788 -0.13920406 0.46303254 0.5923395 0.7867662 -0.07528466 0.5209821 0.55013543 0.56669116 0.21388349 -0.012104824 -0.029321976 0.47872594 0.49755293 0.53550464 0.54849035 0.025883533 0.13080826 0.059498817 0.36731458 0.06471708 0.08536228 0.3216328 0.19437373 0.40149212 0.39421505 0.42737007 0.3969797 0.26411533 0.12258741 0.17488046 0.32428607 0.3855145 0.16707864 0.32417485 0.05661737 0.3942513 0.027249943 0.18693615 0.37214088 0.41094482 0.4838292 0.11384821 0.028369166 0.46568605 0.4885835 0.27907583 0.0753789 -0.10845188 -0.1838648 0.42822278 0.50163585 0.024386391 0.4408062 0.5140257 0.54824805 0.22481237 0.10293053 0.08107911 -0.05277723 0.4957248 0.59486735 0.63659 0.32859164 0.3233068 0.5303246 0.66908324 0.70663124 0.61323285 0.51922894 0.30765235 0.3153944 0.3263369 0.27907243 0.34888014 0.47830766 0.49567866 0.50284946 0.50917435 0.6882783 0.6501368 0.47783738 0.37816316 0.24347523 0.34221756 0.34572798 0.123091176 0.14540721 0.2023575 0.14240621 0.15207288 0.13997708 0.15504572 0.22093648 0.10608631 0.39527655 0.5174796 0.47097504 0.42430604 0.5075906 0.5954121 0.5611821 0.506942 0.5795554 0.53987116 0.42349583 0.51873624 0.40061164 0.42091402 -0.20129818 0.3426525 0.27790686 0.3150998 0.30991295 0.32529026 0.26415554 0.34959072 0.33369258 0.34078455 0.6132802 0.3529695 -0.19681221 0.7014867 0.7340888 0.4596114 0.4858203 0.5683334 0.68303657 0.9198065 0.8802918 0.6033796 0.6016245 0.45618057 0.48685336 0.50735456 0.4724949 0.19196996 0.68176174 0.773516 0.8916905 0.55104107 0.5808572 0.60688794 0.5619022 0.4274133 0.48147583 0.4744956 0.42395478 0.18085247 0.28286693 0.29830536 0.34054896 0.35925156 0.48575324 0.4582405 0.48922637 0.43086892 0.45594674 0.45141906 0.400679 0.28521246 0.280232 0.27837095 0.35950553 0.37184405 0.34822327 0.3314773 0.23835918 0.41558573 0.453165 0.4252562 0.5937212 0.4139683 0.47198474 0.4471262 0.40450305 0.2514344 0.24108127 0.2445828 0.2932457 0.33151567 0.42070848 0.28160855 0.09487027 0.056378543 0.005563657 -0.039856717 0.060810916 0.6368042 0.7304863 0.4474721 0.4851821 0.49467918 0.24722585 0.24995759 0.36452872 0.44148713 0.24303275 0.16404873 0.07846687 0.020975698 -0.03474508 -0.054244116 0.8145695 0.47376093 0.4397914 0.5531402 0.59888744 0.08761869 0.77303374 0.5626825 0.6399886 -0.28094026 0.35092717 0.5231954 0.6412293 -0.060979612 0.27983364 0.16227277 0.29368162 0.5321031 -0.20394297 0.11750989 0.5223972 0.54078656 -0.060768746 -0.05470004 -0.011723287 0.13324955 0.303969 0.41173416 0.49798018 0.5240911 0.46748865 0.50394267 0.5239354 0.46110356 0.48219317 0.45433348 0.40926582 0.23715372 -0.13401218 -0.167416 -0.07864094 0.009691246 -0.036682457 0.059255045 0.18140852 0.4106534 0.47540453 0.3543474 0.45773163 0.47150418 0.43794328 0.46318418 0.3889408 0.25783288 0.13175942 0.057651408 0.0070074573 0.019254066 -0.0018502716 0.16902283 0.1947036 0.3655844 0.21850438 0.1702359 0.093461186 -0.07533098 0.12333052 0.1402775 0.28816906 0.2822884 0.004419096 0.008074015 -0.0467041 -0.042807467 -0.088361666 0.18230811 0.16013455 0.2897077 0.31520516 0.18812071 0.063016586 0.35516822 0.43893623 0.39176604 0.018492032 -0.16107556 0.36272526 0.46827978 0.5012632 0.60043705 0.5632273 0.51376694 0.22799252 -0.017852068 0.43351102 0.5110561 0.527778 0.58694553 0.503453 0.24312826 0.40935043 0.46823025 0.5473988 0.4473761 -0.040519916 -0.011000227 0.41466743 0.30501595 0.46449995 0.44943467 0.55138403 0.4600486 0.56875175 0.5656155 0.37951493 0.4252586 0.4611952 0.5621634 0.55146277 0.48867998 0.27896553 0.2632503 0.28194922 0.23112828 -0.016456528 -0.01453121 0.35970774 0.4312522 0.47589895 0.5425857 0.36498654 0.4055084 0.46175393 0.5158727 0.51978695 0.18317248 0.25551972 0.40722394 0.46317804 0.4244545 0.11152994 0.349671 0.3400953 0.28086945 0.13927983 0.14619642 0.12745318 0.09179342 0.08211334 0.50252277 0.4237528 0.27188322 -0.021692052 0.43734568 0.5708084 0.59177196 0.619411 0.58820605 0.5426754 0.38941127 0.40094998 0.551056 0.60215914 0.625742 0.56887853 0.14683884 0.6075481 0.62168586 0.6391225 0.51004076 -0.3651442 0.39992192 0.33018935 0.32456714 0.20659405 0.22522065 0.28076732 0.13658896 0.3051983 0.5356859 0.43218952 0.43945643 0.2666426 0.56836784 0.6858268 0.4278026 0.4394673 0.4777986 0.7896411 0.57702494 0.57434285 0.3561902 0.39833286 0.43077868 0.1797505 0.1560867 0.5004042 0.523828 0.57381546 0.5229971 0.4202053 0.35995784 0.38375574 0.40340942 0.14452533 0.28028965 0.36585596 0.25547045 -0.08132902 0.25165114 0.34840268 0.36287814 0.3841468 0.3850155 0.2374141 0.261176 0.3142435 0.34080797 0.24322177 -0.005607836 0.0028289612 0.27681404 0.27548477 0.3326631 0.36456668 0.39655012 0.28322858 0.29881 0.29758516 0.387389 0.20465748 0.023033276 -0.0062893126 -0.015485952 -0.06863782 0.17848562 0.45383745 0.3248681 0.36285403 0.40474123 0.4931435 0.42331952 0.29038912 0.27574968 0.301159 0.44004318 0.4729668 0.116968155 0.36046988 0.4066827 0.5099688 0.470893 0.3797726 0.57148874 0.5569022 0.36255455 0.42932004 0.6065913 0.73208475 0.71079355 0.60332704 -0.2751773 0.3109003 0.40869126 0.41185537 0.7242391 0.8297941 0.83522713 0.78511834 -0.221127 0.0936766 0.1638622 0.40444422 0.41286796 -0.02928564 0.34708777 0.4376033 0.43027472 0.49146736 0.117298394 0.49439502 0.44520992 0.4444036 0.5049385 0.5488906 0.5462713 0.44797796 0.51143014 0.4513191 0.17784247 0.20844609 0.49165097 0.50420904 0.44320166 0.53349406 0.5085667 0.41615438 0.49106944 0.1113607 0.09701088 0.1677688 0.2041252 0.4064373 0.47361773 0.49774578 0.19202371 0.44297567 0.3122924 -0.056118157 0.029876739 0.1309627 0.17009932 0.1700667 0.07339292 0.18476525 0.14261398 -0.05668216 -0.06082005 -0.069310136 0.18172477 -0.06339425 -0.0029105246 0.15425014 -0.022126004 0.27357593 -0.07093888 -0.07188341 0.36212784 0.29095617 0.5413581 0.44617558 0.019791633 0.47523203 0.6024046 0.5685391 0.5350233 0.52312624 0.6117759 0.4912046 0.5240971 0.56607985 0.573001 0.39608535 -0.23601314 -0.0057453588 0.38184196 0.42734313 0.2931327 -0.30046234 0.15007281 0.17537516 -0.15029666 0.27036726 0.23949522 0.15977731 0.38226122 0.4170369 0.28203326 0.49304867 0.3468596 0.4240622 0.49219936 0.442064 0.4535148 0.34132802 0.45368898 0.3664012 0.29352564 0.20743048 0.19346114 0.20635977 -0.026904337 0.26519212 0.07637334 0.35824248 0.42892146 0.43021274 0.56331754 0.5973688 0.58331513 0.6058142 0.454633 0.461401 0.4527662 0.3414227 0.36541632 0.4464665 0.5382184 0.56393486 0.5533862 0.4060722 0.423195 0.23588866 0.5103886 0.44928163 0.3293076 0.096744314 0.42565602 0.35973203 0.10894192 0.0044145603 0.23465651 0.015112399 0.0012011379 -0.09024551 0.5366035 -0.042501926 0.50264 0.5690423 0.60081124 0.5474355 0.52773476 0.25629818 -0.15727086 0.6426748 0.646368 0.5238211 0.6526067 0.6457112 0.4426381 -0.24946056 0.29645908 0.39645875 0.56385815 0.6069915 0.6176059 0.3404171 -0.17177737 0.2834964 0.1394937 0.15963449 0.22580284 0.20927575 -0.11855248 0.17252928 0.39672875 0.3378031 -0.1830185 -0.13580729 0.33460832 0.37722147 -0.28870884 0.44919348 0.482572 0.4953159 0.30164278 0.3354798 -0.094828315 0.43827534 0.47240555 0.38414747 0.14091355 0.32466614 0.42101645 0.29722705 0.13662705 0.1294511 0.3751997 -0.0049316287 0.056992605 0.057538696 0.07855964 0.022718212 0.105167575 0.04874914 0.33173808 0.28852075 0.26398245 0.21705015 0.24718553 0.021465372 -0.10795215 -0.13945036 0.103094816 0.021883711 0.30221796 0.20243877 0.22616401 0.34087667 0.14396924 0.08675206 0.30213767 0.34946835 0.18771723 0.42890674 0.1185592 0.28156132 0.41313437 0.27283025 0.45002878 0.52446103 0.16861162 0.22633064 0.19801012 0.24441251 0.39737833 0.60230136 0.56803536 0.1418602 0.13608557 0.3316766 0.392949 0.38308522 0.7451817 0.8044812 0.6928912 -0.025864646 0.04564371 0.0986577 0.11003408 0.3502596 0.40452608 0.42938945 0.021922298 0.3566419 0.4084327 0.3430998 0.51488864 0.26444906 0.45829844 0.42026645 0.25272432 0.28499827 0.53846824 0.53363967 0.43588933 0.4276582 0.4183579 0.4533772 0.46734762 0.22190933 0.23615605 0.20260854 0.426751 0.31898332 0.19462001 0.18623112 0.20505343 0.43064737 -0.17626315 -0.20474288 0.16638999 0.13097388 0.20580287 0.22447145 0.17069793 0.1526178 -0.20175844 -0.11211842 -0.10038723 -0.031236716 0.028192952 0.165732 0.17380849 0.06073487 0.13460425 0.25830853 0.45872092 0.3456012 0.4375295 0.5645704 0.4812285 0.564043 0.50670916 0.48589855 0.45773208 0.29898173 0.38874012 0.44011366 0.14915514 -0.27333966 0.070755444 -0.23019567 0.1617039 0.31942314 0.14353177 0.18814684 0.41453236 0.08341642 0.39990205 0.34840548 0.06157568 0.29379383 0.1781744 0.014565192 0.056098886 0.49701133 0.1880079 0.5253522 0.43721095 0.62737954 0.45248795 0.5338134 0.592726 0.6111461 0.6162561 0.5949001 0.60504067 0.48088193 0.47126436 0.45018893 0.39639983 0.4715536 0.47458428 0.31158572 0.4330062 0.5424327 0.5598581 0.5409315 0.39109635 0.3988664 0.51066846 0.43782473 0.30752915 0.2979756 0.2522434 0.36665636 0.26081854 0.24147661 0.23996678 0.2492034 0.18137923 -0.09547673 0.44671795 -0.43661714 0.5482068 0.5675272 0.4433375 -0.21662748 0.62573785 0.49969125 0.39349544 0.63194036 0.6289678 0.36642197 0.3074053 -0.06406617 0.6278409 0.6258762 -0.14902778 -0.08402782 0.012036182 0.059552386 0.04837146 0.4029782 0.5146862 0.5224532 -0.17539294 0.6047033 0.5412024 -0.16501127 0.11905548 0.3883478 0.5217907 0.5981966 0.57188964 -0.03549453 0.15554702 0.3527847 0.52081025 0.5854 0.54677355 0.1256411 0.52317715 0.16086766 -0.25007993 0.47413188 0.5037118 0.47716618 0.40761042 0.21015276 -0.35846317 0.34514335 0.43213564 0.3495262 0.2684739 0.3377892 0.33369514 0.118405044 0.14720212 -0.27974954 -0.018102475 0.15535843 0.15129822 0.10992559 0.3452741 0.35572886 0.44083083 0.286136 0.03172815 0.28953058 0.07909066 -0.09241387 0.019046705 0.28843397 0.3340726 0.23659037 0.10674345 -0.2857304 -0.32287678 0.23577929 0.11758962 0.17960483 -0.25038862 -0.026698768 0.26071548 0.13143285 0.28703123 0.16512501 0.18361267 0.11332612 0.15963422 0.37590492 0.13841066 0.31603962 0.16903615 0.19220737 0.16223243 0.17399928 0.47399953 0.14861435 0.17506245 0.17450969 0.14352387 -0.0015745163 0.51147485 0.48745424 0.53514385 0.51691884 0.09803626 0.13969167 0.13573499 0.13378492 0.21780947 0.7197353 0.63787335 0.5447228 0.56276965 -0.049667798 0.024344366 0.069386855 0.21662849 0.3280958 -0.024527468 -0.102209195 0.10885532 0.11391543 0.2290354 0.41650742 0.4944818 0.18054828 0.35381097 0.15719438 0.2541586 0.18889476 0.3212039 0.36041346 0.4190796 0.16461442 0.1822288 0.20959197 -0.086194776 0.24218148 0.39486235 0.13422647 0.16148487 0.09559055 -0.16930816 -0.17162375 -0.20953746 -0.07502287 0.21817897 0.28023815 0.1461008 -0.042284973 0.0084775165 0.110208556 0.21847929 0.08600108 -0.0013703443 0.01589927 -0.18393198 0.17553025 0.37389478 0.36046714 0.42871535 0.41363147 0.422