# vtk DataFile Version 2.0
Really cool data
ASCII
DATASET POLYDATA
POINTS 2829 float
-9.596211 24.525963 18.825825
-9.616182 24.595358 19.229597
-9.626929 25.469814 18.792273
-9.635722 25.146778 19.323898
-9.538526 25.999191 18.57089
-9.106073 24.232355 18.191973
-9.219655 23.984383 18.704256
-9.291777 24.013924 19.286627
-8.981431 23.98429 19.866154
-9.137667 24.667507 18.016356
-9.482831 24.549892 18.481462
-9.5012245 24.536098 19.561117
-9.125882 24.716946 20.132769
-9.120366 25.712742 17.825163
-9.508451 25.660824 18.363201
-9.472233 25.493866 19.64943
-9.1619005 25.397738 20.130106
-8.669311 25.36823 20.712008
-9.0971575 26.383698 17.879414
-9.407541 26.285627 18.538107
-9.291518 26.2964 19.332737
-8.910211 26.385176 19.971218
-8.977252 26.97292 17.998838
-8.947336 27.114954 18.429873
-8.892979 26.91435 19.422543
-8.729758 26.742668 19.9396
-7.5290194 18.327803 23.304153
-8.520936 23.987938 18.17855
-8.648152 23.765812 18.321579
-7.990942 24.21919 20.555176
-8.614748 24.765682 17.68907
-8.532714 24.497337 20.51039
-8.215255 24.837095 21.038902
-8.4519415 25.810284 17.361425
-8.555984 25.36092 17.493221
-8.042675 25.480013 21.183561
-8.360565 26.528904 17.361
-8.714767 26.58161 17.510744
-8.465596 26.38318 20.463856
-8.050339 26.13744 20.966444
-8.136926 26.883688 17.394417
-8.435967 27.136389 17.76249
-8.562232 27.405529 18.486872
-8.479557 27.249876 19.34487
-8.214254 26.9097 20.222546
-8.05964 27.566906 18.470877
-6.636867 15.961116 22.0592
-6.7172093 15.960228 22.486086
-6.7669644 16.126474 23.047276
-6.880659 16.716755 21.9784
-6.990902 16.50297 22.531746
-6.9974403 16.757263 23.321993
-6.8112063 17.03332 23.965654
-6.947496 17.381752 22.028631
-7.2717185 17.520023 22.673462
-7.3138833 17.534311 23.473133
-7.0695047 17.74525 24.093311
-7.034393 18.487198 22.063663
-7.374646 18.293547 22.695484
-7.433051 18.470615 23.614374
-7.081203 18.37457 24.219084
-6.5279083 19.502434 14.684136
-6.961352 19.564278 22.698246
-7.3254457 18.918402 23.463583
-7.0175943 19.01485 24.090967
-6.539514 20.841457 19.32071
-6.6708546 20.973354 20.322796
-6.6276455 20.318003 21.278349
-6.886472 19.916754 22.495104
-6.793082 21.735685 19.130394
-6.58821 21.393862 20.835295
-6.755862 21.648748 21.507118
-7.333689 23.072554 20.027489
-6.611862 22.206509 21.369947
-6.6223464 22.239632 22.401754
-6.596428 21.970337 22.842503
-6.6951375 23.055029 21.831722
-7.625743 24.646181 21.37405
-7.182698 24.813437 21.687832
-7.2284107 25.706766 17.297058
-7.6918 25.14391 21.513956
-7.2003417 25.457693 21.706032
-7.767825 26.406013 17.23074
-7.462006 26.356483 21.241362
-7.096209 26.877844 17.374756
-7.6388907 27.22664 17.689472
-7.0567245 27.48719 18.272842
-7.572162 27.437105 19.845415
-7.1382575 26.916786 20.995272
-6.0360394 15.405321 22.446486
-6.1656594 15.771927 21.860384
-6.4122124 15.64921 22.522749
-6.3023067 15.846224 23.22181
-5.999905 16.414558 21.291048
-6.485076 16.498425 21.584904
-6.5739546 16.363968 23.673609
-6.345166 16.652952 24.004751
-5.871222 18.292555 14.510404
-5.861396 18.288383 15.255113
-5.8260355 17.239819 21.115479
-6.4370666 17.080952 21.412579
-6.538534 17.56848 24.46137
-6.2480564 17.758886 24.621056
-6.1097956 18.92029 13.882882
-6.3160963 18.81478 14.550379
-6.134427 18.679985 15.183327
-5.6496325 18.452662 16.803051
-5.7784886 18.728537 17.21065
-5.597349 19.17235 18.548525
-5.9609876 19.12216 19.685574
-6.064619 18.56229 20.812794
-6.740564 18.688782 24.497726
-6.4380035 18.442156 24.670961
-5.778734 19.833208 13.410789
-6.1739936 19.437489 13.753299
-6.4678745 19.417166 14.420692
-6.377549 19.3999 15.355122
-5.9970245 19.384415 16.033806
-5.9147263 19.379662 17.15169
-6.0071664 19.483114 18.30925
-6.1350317 19.332567 19.887857
-6.2815304 19.53536 20.335413
-6.4774666 19.097069 24.460144
-6.067476 19.33967 24.675777
-6.1675963 20.076046 13.930964
-6.3370094 20.23615 14.465692
-6.2383137 20.191765 15.481233
-6.105999 20.214499 17.00554
-6.0274405 20.509453 17.71142
-6.3827453 20.352736 18.86257
-6.450486 20.46835 19.39838
-6.380789 20.690641 20.136282
-6.3452845 20.476917 23.233892
-6.371583 20.063559 23.931541
-5.8989987 20.960226 14.674377
-5.6412063 21.207422 15.515172
-6.054538 21.205961 17.580925
-6.501943 21.37083 21.13458
-6.2920933 21.556082 23.298948
-6.2001204 22.87176 18.063805
-6.546418 22.432652 22.76879
-6.124154 22.414783 23.198532
-6.29298 23.209028 22.538412
-5.9772844 23.66663 22.90437
-6.7657533 24.66399 17.368097
-6.6163936 24.766544 21.985071
-6.0618625 25.94132 16.818012
-5.937729 25.217335 22.451841
-6.3553824 26.384012 17.080332
-6.436478 26.301537 21.56301
-6.663893 26.03988 21.673481
-6.825957 27.44737 20.38778
-6.6399865 27.01479 21.048769
-6.5162177 27.662823 18.033936
-6.7218933 27.643343 20.181803
-5.664249 32.997322 10.831343
-5.7187147 32.840958 11.33479
-5.7181683 33.44909 10.800965
-5.804799 33.534706 11.297272
-5.6951523 33.530132 12.020896
-5.7423177 34.09579 11.034131
-5.659015 34.30945 11.504649
-5.629456 34.33441 11.956422
-5.5942945 15.399822 22.077726
-5.5924335 15.361663 22.454199
-5.3967576 15.454968 23.05373
-5.446983 15.62571 21.722795
-5.475954 15.581565 23.30626
-5.494474 16.1152 23.940958
-5.740114 16.220324 21.327791
-5.5836086 16.830597 24.425032
-5.539123 17.157969 24.566553
-5.65494 18.312527 14.122394
-4.9586334 17.662683 14.852889
-5.5476236 18.04991 15.203837
-5.513146 18.074398 16.874235
-5.2887416 18.05034 17.33299
-5.1183476 18.220688 18.290424
-5.6192017 18.040833 20.662178
-5.486784 17.659481 24.848703
-5.541746 18.967894 13.329076
-5.541649 18.707195 13.5658865
-5.553946 18.333694 17.172823
-5.4570575 18.534714 17.994116
-5.3991537 18.513407 25.009027
-5.448926 19.576073 13.276343
-5.2865157 19.342678 25.021805
-5.420707 20.183172 13.309118
-5.624598 20.370474 13.465446
-5.4062796 20.267778 24.59397
-4.9586415 19.97512 24.971243
-4.9975033 20.847406 13.364822
-5.343948 21.173018 13.769014
-5.411887 21.480337 14.294731
-5.035072 21.702267 23.991793
-5.2795196 21.693134 14.943927
-5.3961353 22.177046 17.22011
-5.579495 22.09689 17.549332
-5.701337 22.742943 23.367878
-4.7895675 23.102293 24.02027
-4.9103913 24.63207 23.450539
-4.7192283 25.671637 16.08378
-5.1512737 25.503939 16.645021
-5.1104064 25.21388 22.71974
-5.450173 26.472696 16.763613
-5.2897706 26.241615 22.257835
-4.751502 28.100132 12.995244
-4.750614 27.899786 13.306792
-4.7556396 27.372206 16.40633
-5.538894 27.159342 21.274141
-4.803344 28.544533 12.762855
-4.904077 28.638475 13.537177
-4.5220523 28.158016 14.48493
-5.3023453 28.082026 17.65963
-5.354091 28.160189 18.766687
-5.4896235 27.898617 19.480919
-5.0142455 27.628916 20.448399
-4.5968056 29.927227 11.824686
-4.6314826 29.55579 12.192472
-4.5851703 30.53202 10.910928
-4.8260546 30.652992 12.295806
-4.5692906 30.929941 13.19628
-4.819005 31.489798 10.701439
-5.1554174 31.625315 11.398967
-5.2481627 32.17347 12.125176
-5.169404 32.848526 10.312319
-5.4000998 32.82909 10.5342455
-5.490901 32.429466 11.378166
-5.350293 32.603138 12.200238
-5.2061205 33.483875 10.234013
-5.465299 33.658348 10.428199
-5.434884 33.593475 12.420166
-4.9707265 33.479706 13.009874
-5.112571 34.158195 10.326262
-5.331136 34.296818 10.697296
-5.5027223 34.615845 11.535652
-5.4045362 34.60209 12.20639
-5.0368614 34.341732 12.801928
-5.075081 34.810493 10.89431
-5.133006 35.058453 11.530843
-5.094891 34.989338 12.209563
-4.7781157 34.848755 12.770425
-5.0421076 15.409621 22.083345
-4.602809 15.37046 22.738815
-4.2632933 15.591444 21.847141
-4.7143674 15.66069 23.3796
-3.729634 16.858465 12.769172
-3.8613322 16.703768 13.331155
-3.8670864 16.87677 14.049359
-4.284046 17.352943 15.191805
-4.61391 16.804724 21.065418
-4.5846324 16.730436 24.36284
-3.6386588 17.396204 12.260857
-3.8241155 17.367025 12.747325
-3.9649596 17.335735 13.212922
-4.6263924 17.62627 15.105039
-4.311039 17.824362 18.39023
-4.2399044 17.837156 19.50733
-4.5036755 17.77677 24.982924
-3.7222404 18.08414 12.618381
-4.19627 19.031199 12.82358
-4.155322 19.349468 25.231163
-4.4526997 20.39184 12.996442
-4.361368 20.1885 24.863485
-4.541449 21.171612 13.302392
-4.4366326 21.780163 13.77093
-4.09803 22.438107 15.278436
-4.081994 22.646807 24.384806
-3.901404 23.861502 16.779972
-3.6959631 23.577366 25.17001
-4.0783563 24.602474 16.473734
-4.3955956 24.410912 24.031874
-3.7562525 24.004948 24.946346
-3.810116 25.835321 14.028468
-3.8311858 25.450254 14.930739
-4.3956647 25.750937 15.973946
-4.505832 25.388485 23.304054
-3.8104765 24.842049 24.424053
-4.0404506 26.892477 12.869285
-4.2633767 26.998886 13.446207
-4.334343 26.659939 14.595232
-3.9863832 25.971123 23.0125
-3.957868 28.0543 11.489627
-4.3929896 27.7992 12.570532
-4.546086 27.680473 13.306224
-4.2859406 27.173042 22.178007
-3.9780579 28.630743 11.042471
-4.431065 28.345388 11.987961
-4.496536 28.270397 12.380714
-4.59774 28.191029 16.452122
-4.2709413 28.478497 17.686987
-4.7894363 28.273417 19.375145
-4.305871 28.523169 20.225744
-3.7839718 28.742544 21.564878
-4.329106 30.1342 10.733314
-4.521021 29.666618 11.33307
-4.4004087 29.460012 14.457648
-3.8180997 28.815634 17.57756
-3.7815275 28.92723 18.213425
-3.6735413 28.794964 19.460777
-4.002353 29.108643 20.538319
-3.809037 29.135256 21.358114
-4.2682443 30.62408 10.642513
-4.051667 30.034222 14.545614
-4.1757226 31.68587 10.157536
-4.056832 31.137218 13.571703
-3.7145808 30.760788 13.993378
-4.097972 32.573853 10.041356
-4.4361095 32.50015 13.3333
-4.017443 32.94304 13.69619
-4.6273417 33.567482 10.100872
-4.043395 33.84332 13.659793
-4.5394154 34.29549 10.299307
-4.4760356 34.602093 10.52254
-4.3749905 34.2301 13.38332
-3.9208078 34.39577 13.673801
-4.498225 34.960472 10.858925
-4.487149 35.310966 11.494571
-4.424352 35.28566 12.361963
-4.191971 34.9605 13.0391655
-3.1892042 16.139473 12.731593
-3.1750464 15.978895 13.299814
-2.5707245 15.464633 17.896463
-3.047028 15.561408 21.950275
-3.034509 16.802565 11.92922
-3.4359353 16.54713 12.515872
-3.3290493 16.499382 14.265412
-3.4977646 17.042978 17.225187
-3.0946767 16.64404 21.006987
-2.8758392 17.901985 11.311041
[...]
POINT_DATA 2829
SCALARS features_00 float 1
LOOKUP_TABLE default
0.8075331 0.8013923 0.8322106 0.80277157 0.8538799 0.77110434 0.77105045 0.7667811 0.6875386 0.7773073 0.8007064 0.77370524 0.6759823 0.80401874 0.8377469 0.7697618 0.68434715 0.5603591 0.81836116 0.8622805 0.8076991 0.6866895 0.8128958 0.84411705 0.77842873 0.6706487 0.6969942 0.6898118 0.70286834 0.44117838 0.7092976 0.5453484 0.46433878 0.670293 0.6988652 0.45861197 0.68056697 0.74613893 0.5795057 0.49664527 0.6684247 0.73146904 0.80540687 0.74938613 0.5782592 0.7349638 0.7708193 0.7930128 0.79184866 0.70824796 0.77735555 0.77012813 0.7117591 0.62696195 0.72893405 0.74625015 0.6981938 0.49912906 0.65653306 0.6818394 0.6628906 0.6973593 0.4808476 0.63007414 0.602642 0.11784306 0.11320141 0.14683844 0.37271908 0.111304484 0.11350857 0.17661476 0.16785422 0.19370604 0.23900926 0.23646563 0.17692623 0.33517602 0.26926103 0.39629552 0.3836441 0.3381086 0.5658521 0.43474567 0.5293977 0.63710755 0.576154 0.5500614 0.4316453 0.7629111 0.75122535 0.7857661 0.77055645 0.6482357 0.68346024 0.7459173 0.69730145 0.5425923 0.43532145 0.48887736 0.5699245 0.65295076 0.6217054 0.67724204 0.64936453 0.51224184 0.26748404 0.22179228 0.11894017 -0.0044791773 0.18423805 0.61135316 0.6029842 0.6158023 0.69423556 0.71591485 0.558654 0.39139 0.21559912 0.13576804 0.021152277 0.077882424 0.5579774 0.510459 0.69033873 0.70679927 0.56076396 0.2248219 0.19466197 0.124734655 0.11118129 0.121401556 0.35590613 0.4412834 0.64074624 0.4722891 0.17374063 0.13206328 0.2325567 0.04764427 0.22380152 0.19373949 0.16154005 0.10068063 0.23557006 0.16368532 0.15439196 0.12651117 0.29954362 0.3066816 0.31602436 0.381456 0.36503336 0.44708562 0.35214663 0.761287 0.7293329 0.8176518 0.81343687 0.78971136 0.8651909 0.87824667 0.86275846 0.7266979 0.73107743 0.70897424 0.6948507 0.71494937 0.6743084 0.6585028 0.60983247 0.5891017 0.5391021 0.3089398 0.38541627 0.24198066 0.18968341 0.14009799 0.23147516 0.5654848 0.56809455 0.56741226 0.22420672 0.16468783 0.53182864 0.55441374 0.4810279 0.54570806 0.58877695 0.38138372 0.41323885 0.48228377 0.5600427 0.57234895 0.13159865 0.5261331 0.04141846 0.09869589 0.18131776 0.19761783 0.11605187 -0.08864653 -0.037979588 0.08980468 0.09547973 0.10521336 0.2516122 0.25396472 0.21011654 0.20092921 0.25475866 0.2929694 0.3114886 0.15702057 0.14848174 0.16121873 0.14362334 0.3068573 0.30177233 0.29784775 0.3856514 0.36163232 0.47044826 0.483934 0.57417464 0.7296674 0.7317652 0.656038 0.6518066 0.80294955 0.8318893 0.76778823 0.66009295 0.8408373 0.870399 0.89998543 0.8646803 0.7688504 0.88401115 0.9197866 0.88141114 0.7897247 0.66597444 0.5819391 0.51489276 0.59005874 0.48630232 0.43151644 0.32695422 0.19301109 0.43493783 0.4882546 0.4711892 0.44591653 0.40794685 0.2529431 0.094482705 -0.035805345 0.5104515 0.3979572 0.3349535 0.4357097 0.34962648 0.33078945 0.38975298 0.38860983 0.24306345 0.26734215 -0.08197425 0.3554461 -0.117593706 0.18847653 0.33794993 0.055542972 -0.0465187 -0.07952881 0.10157427 0.27130672 0.17791307 0.19325157 0.102713704 0.07262099 0.21106589 0.23147327 0.24465756 0.03553075 0.20893556 0.23948222 0.24354905 0.1771194 0.11662444 0.08855133 0.21878281 0.42036843 0.25515464 0.26787934 0.39353806 0.10740903 0.1274583 0.19740072 0.38647133 0.4635247 0.2905637 0.2738574 0.5349749 0.27080196 0.21951897 0.6922535 0.42095762 0.4269296 0.7680029 0.56851226 0.8017179 0.82132256 0.6525411 0.6294435 0.8551544 0.9231169 0.86324406 0.7290802 0.52215946 0.47427216 0.17123021 0.11057954 0.5462817 0.52127856 0.33443773 0.03239504 0.1546066 0.5099694 0.5108759 0.45178708 0.46700603 0.44092113 0.44140714 0.41297176 0.3946677 0.40119046 0.22284456 0.23976985 0.1466474 -0.15792115 0.35617858 0.3948732 0.41810408 -0.016718872 -0.035105113 0.40420142 0.44778645 0.06245201 0.09322729 0.06368011 0.15949759 0.31362534 0.38786072 0.13150233 0.0642301 0.18517047 0.1506967 0.20102933 0.14990124 0.4180355 0.12989566 0.07388179 0.13618274 0.51590884 0.52206653 0.23945935 0.022078216 0.5417601 0.5421331 0.548264 0.22827837 0.54850537 0.6435798 0.40519744 0.7178749 0.7215419 0.58928734 0.79687023 0.82085025 0.78807485 0.69056857 0.65339804 0.6667431 0.67932534 0.67392313 0.5614476 0.55720603 0.57862234 0.6147913 0.58882767 0.5241986 0.56167424 0.54581296 0.5210737 0.40531206 0.34173486 0.3884631 0.3374623 0.31943747 0.4258576 0.55751 0.4961555 0.46630728 0.40982753 0.35252258 0.27998364 0.18671045 0.23285884 0.25729403 0.19135 0.12887473 0.10517303 0.3876512 0.5636414 0.50712776 0.40609246 0.26834738 0.09486272 0.1781486 0.07415426 0.11612364 0.06168089 0.5585511 0.10076265 0.53655887 0.48263288 0.42681548 0.2362532 0.34854877 0.31028134 0.2050352 0.19257134 0.08997924 -0.005508784 0.24717009 -0.13618727 -0.23878857 0.34517854 -0.21607819 -0.15091455 -0.3063603 -0.5932566 0.44813007 -0.0068904087 -0.039373606 0.46677405 0.04096013 0.052263357 0.40437633 0.15645462 0.25960755 0.35005474 0.5351715 0.34452856 0.040327307 0.61385673 0.5266727 0.42010823 0.10734308 0.43070993 0.6348908 0.39886114 -0.06155315 0.103096284 0.5301604 0.6626042 -0.088749856 -0.0554516 0.32905942 0.5245065 0.5766933 0.571337 0.5532566 -0.02856718 0.27191985 0.20855117 0.36252055 0.47196248 0.4991576 0.59115785 0.7315787 0.7082407 0.6849795 0.6410811 0.6915673 0.70624614 0.70857763 0.5051037 0.66834176 0.7043961 0.69792217 0.6333393 0.47331026 0.5390917 0.5396754 0.5141282 0.53128743 0.5979564 0.55718994 0.029305816 0.045279574 0.2599426 0.5437199 0.48419797 0.40032977 0.05835552 0.023029543 0.022695437 0.44714344 0.38175428 0.2740299 0.21675166 0.11326948 -0.016655281 0.50381786 0.40210682 0.21592629 0.20862374 0.14613518 0.8573737 0.89281094 0.55025864 0.5411689 0.09602633 0.13979498 0.1243663 0.8590395 0.8968452 0.1653827 0.23875819 0.3635972 0.52702224 0.72699726 0.81649446 0.86588305 0.8976406 0.47751054 0.23880127 0.32839593 0.3702081 0.40878707 0.63826704 0.71758175 0.776496 0.82631063 0.39854842 0.07974087 0.23544122 0.25850248 0.26420254 0.31002763 0.35566026 0.38454533 0.49742734 0.6563631 0.6785406 0.34032273 0.18809845 0.21052319 0.25438493 0.33380294 0.30812204 0.14452443 0.17709568 0.1759924 0.069063306 0.2997318 0.23913117 0.15717198 0.045788392 0.058921542 0.05699555 0.42977133 0.019011915 0.040001307 0.40099448 0.42574358 0.47455454 0.2714667 0.0013427101 0.2590923 0.31654024 0.5768294 0.5152899 0.27766046 0.6430587 0.6690586 -0.09697451 -0.033943355 0.47336495 0.49615112 0.63126004 0.6055119 0.16310197 0.34768265 0.42505708 0.5411637 0.55001986 0.55146 -0.04951947 0.023921717 0.25465965 0.4037925 0.4246202 0.436081 0.531518 0.63217473 0.6377132 0.6059724 0.6161721 0.6562816 0.6673994 0.5950917 0.3924654 0.41692424 0.45314088 0.62861216 0.40481976 -0.04950603 0.28532004 0.38752478 0.3539256 0.0038735718 -0.010257961 0.42859012 0.13338931 0.32073116 0.15556552 0.26740742 0.074644856 0.4544052 0.8339454 0.8855686 0.45059878 0.095023006 0.24357924 0.30529588 0.5278398 0.6807928 0.905197 0.9054969 0.42967162 0.8837373 0.41610757 0.73586464 0.7861644 0.26053706 -0.2723556 0.5548461 0.62187654 -0.30490837 -0.28113833 0.0065291263 0.12551503 0.25650835 0.36938858 0.35168272 0.21427879 0.0940503 0.170531 0.1837298 0.18200554 0.20495671 0.024086043 0.051670827 0.11856733 0.18394528 0.1474748 0.09857445 0.1511732 0.13757032 0.17466822 0.19736837 0.20467645 0.09314811 -0.057976916 -0.029596016 0.18407564 0.2130875 0.21418956 0.2202756 0.32423407 0.42962676 -0.084708095 0.5403676 0.60630655 0.19590013 0.6347393 0.14542595 0.34414148 0.5933021 0.3525092 0.30570632 0.47818696 0.1442488 -0.16104005 -0.14870046 -0.11535239 -0.16660094 -0.23548754 0.23710014 0.0252169 0.074394196 0.580282 0.49767345 0.54157585 0.2712845 0.16107704 0.19472623 0.2610076 0.443193 -0.10872208 -0.06409616 0.020355973 0.34602958 0.30247003 0.14098062 0.29329264 0.019578293 0.17868298 -0.044791095 0.27001032 0.3175346 0.6987495 0.73649156 0.8370061 0.29826757 0.25315338 0.85123897 0.85360545 0.22229469 0.72135556 0.027773283 -0.000731878 0.519372 0.14443584 0.37468234 0.21190019 0.18490702 0.26053107 0.2328501 0.22250837 0.109326765 0.095093824 0.18718623 0.16299886 -0.024655424 0.20684451 0.21735598 0.21445328 -0.2246912 0.16208184 0.20070767 0.20006824 0.24579594 0.08523413 -0.12673934 -0.20332679 0.45022482 -0.0031617954 0.3800061 -0.2643905 -0.01496537 0.044983283 0.49718422 -0.19504839 0.60528076 0.46445736 -0.3083893 0.61483014 0.7225847 0.7338698 0.73789847 0.34177986 0.1571419 0.6562849 0.73496026 0.7760084 0.78309643 0.0737164 -0.1120203 0.20405523 0.21738294 0.67972565 0.73227656 0.7735287 -0.06149058 0.33383143 -0.012593649 0.4465453 0.42150402 0.06626387 0.22135915 0.25898933 0.5219914 0.5113062 0.4848681 0.2591627 0.2803834 0.22776677 0.21034184 0.170151 0.18332483 0.3780183 0.08316743 0.12892063 0.13183525 0.16463329 0.22591542 0.07148566 0.2825318 -0.025470227 0.18647173 0.52854586 0.44443274 0.21210663 0.0610904 0.5424626 0.49439842 0.38449115 0.57370704 0.5145927 -0.023343801 0.3609116 0.5661279 0.6774036 0.72575724 0.740494 0.71514904 -0.2104978 0.65742075 -0.0947407 0.23753574 0.06387448 0.008936077 0.31827515 0.15547566 0.10477759 0.0340588 -0.00576514 0.2083094 0.51352906 -0.18712059 -0.031456262 0.2784536 0.36056522 0.40634993 -0.30983055 0.18853693 0.24348024 0.2766348 0.44821158 0.003504999 -0.023020942 0.007196307 0.24840708 0.045821697 0.05417203 0.25885645 0.28153554 0.20569491 -0.30104458 0.01825063 -0.1495645 0.0066512637 0.0509188 0.090554714 0.3867088 0.4534566 0.533295 0.6352492 0.59513044 0.25830242 -0.32143337 -0.057332054 0.2654178 0.29777724 0.50173086 0.5672163 0.6986188 0.321257 0.41454092 0.45721477 0.76043606 0.78053343 0.13842796 0.4910267 0.57891303 0.68565595 0.76953566 0.8109806 0.09670809 -0.058836766 -0.08513089 0.30519348 0.6848102 0.75923514 0.8372991 -0.08565389 0.41616178 0.099199876 0.22730312 0.491917 0.2510389 0.34608155 0.48517615 0.50196433 0.354916 0.3790042 0.3772623 0.34392974 0.25927213 0.2868361 0.22131513 0.2805236 0.31594408 0.19388159 0.24844396 0.22769803 0.1749213 0.02439474 0.0008543357 0.041324057 0.30297375 0.13932483 0.08840454 0.05617488 0.5451365 0.46256745 0.16401532 0.13290253 0.5901675 -0.11744143 0.025930546 0.02062808 0.6296796 0.6083395 0.3543364 0.47590292 0.58108354 0.51540685 0.41271657 0.408388 0.3322932 0.55321914 -0.12309713 0.020851567 0.37859336 -0.030782737 -0.1690734 0.055999096 0.075835906 -0.04682877 0.075147055 0.481994 0.30630693 0.29390937 0.5738103 0.5159821 0.4245202 0.6073518 -0.27189034 -0.12455058 0.28239277 0.44646496 0.617782 -0.16413012 -0.23137143 0.14750314 0.21852505 0.48569602 -0.22705811 0.22164474 0.14558259 -0.2648375 0.16107474 0.07097236 -0.016871408 -0.12134485 0.15182966 -0.32503778 -0.28825822 -0.113857 0.27183017 0.22637425 0.20889619 0.32049757 0.6320195 0.7161384 0.23627804 -0.2760727 -0.15325806 0.3808617 0.3872868 0.40289265 0.35421628 0.31974775 0.38421246 0.42743418 0.8161067 0.2281569 0.1537419 0.027873982 0.44801706 0.4397406 0.3384262 0.41184404 0.88073933 0.17923695 0.19475494 0.41066325 0.5373843 0.70731294 0.7955449 0.8759934 0.9037038 0.10154312 0.41351968 0.19765705 0.4775826 0.29789835 0.41730338 0.44127783 0.42159885 0.43334836 0.33759075 0.39507404 0.41175032 0.42631435 0.39580926 0.3602124 0.32559687 0.350014 0.33054304 0.17056839 0.29811278 0.38888502 0.5695143 -0.008717068 -0.051034566 0.4250955 0.4820354 0.5342041 0.12622419 0.05838239 0.07367139 0.038695935 0.26263732 0.32471925 0.32583326 0.4522281 0.18481955 0.05565325 0.17265338 0.6030966 0.068549916 0.13105513 0.63291746 0.10666167 0.62163496 -0.064074084 0.21390876 0.58291364 0.37893218 -0.08372739 -0.32314926 -0.3638497 0.45320785 0.4966222 -0.32756943 0.48943573 0.53524905 0.047682077 0.26772892 0.5368407 0.57570994 -0.013886537 -0.105596125 -0.19784516 -0.21518144 0.3666632 0.5131358 0.06792437 0.042392492 0.48365113 0.31554502 0.41675246 0.48674232 0.573622 0.527425 0.51255035 0.6456251 0.51824415 0.6313948 0.32701218 0.4398617 0.509651 0.270649 0.27784938 0.13240594 0.12511072 0.14161988 0.19496495 -0.3049369 -0.13515244 0.2861359 0.15197298 0.12134735 0.81075513 -0.06445351 -0.04749389 -0.031230822 0.3674152 0.41628873 0.42927098 0.38048306 0.2756325 0.29720902 0.89498085 -0.012586728 -0.036439102 0.7075732 0.7766855 0.8737283 0.9013062 0.25630078 0.80437565 0.36315095 0.3339255 0.27228105 0.38061705 0.3343045 0.16093153 0.37531126 0.36485454 0.31164533 0.2102915 0.35306585 0.4002709 0.079441406 0.4402871 0.44312882 0.44104344 0.44236392 0.44515458 0.4405408 0.39413476 0.3987347 0.38525388 0.43238303 0.58368134 0.62928295 0.63678795 0.7533402 0.5928423 0.24180597 0.63628495 0.6337776 0.53147846 0.13249217 0.11492113 0.49830535 0.58546567 0.39179343 0.17198747 0.18460414 0.4200713 0.19546683 0.32109028 0.5045153 0.12160244 0.55389476 0.4639941 0.061233163 0.5429652 -0.0707804 0.37819168 0.005758576 -0.042045012 0.1319958 0.3786 -0.3091576 0.4803759 0.57543206 -0.1885581 -0.29246908 0.5950527 -0.120996855 -0.18828155 0.64302695 -0.044927403 -0.077509806 0.63519204 0.11041109 0.03121609 0.5186201 0.5595417 0.5878979 0.48085213 0.5414204 0.59019995 0.5417061 0.4686091 0.54905784 0.58068925 0.598639 0.52873564 0.5547451 0.5893887 0.50267774 0.4173066 0.45109925 0.34133872 0.22740245 0.10017049 -0.08511075 0.7788697 0.2056044 0.17010105 0.1432371 0.3013362 0.37424207 0.37291697 0.3334189 0.3026272 0.20031045 0.07224787 0.08247067 0.14169638 0.8511095 0.13031718 0.04906603 0.6878783 0.76906276 0.8080326 0.85909975 0.46206456 0.17091888 0.7907194 0.43972445 0.41942123 0.2981058 0.20328224 0.37497053 0.25644958 0.6884324 0.66528517 0.57689387 0.02168021 0.015079275 0.69958854 0.65959096 0.606661 0.03320291 0.060347274 0.68951845 0.6404872 0.5592928 0.31561512 0.072059095 0.04710602 0.09146167 0.115104966 0.30842245 0.36399442 0.6490503 0.5376321 0.44176337 0.12830341 0.40670004 0.49532825 0.469298 0.90932596 0.81898785 0.86117435 0.86045617 0.7896367 0.35619438 0.35654163 0.43714476 0.45339552 0.43326908 0.4096735 0.38674206 0.4109903 0.4289416 0.4476679 0.49829355 0.59198105 0.6258725 0.6379029 0.7248427 0.76623183 0.6684885 0.357644 0.34341365 0.63867545 0.630069 0.5735571 0.6110772 0.25145411 0.10469107 0.30990747 0.563372 0.5108562 0.48264164 0.3376393 0.14400002 0.21218105 0.18713512 0.39917648 0.44204026 0.36623928 0.23139058 0.58082557 0.20891361 0.6950917 0.31302744 0.21165922 0.72203207 0.030377746 0.7016603 0.19845875 0.6511843 0.68210256 0.20879905 0.30158597 0.6471726 0.27403155 0.59687567 0.5173532 0.5556122 0.59053206 0.5441694 0.5157143 0.37103426 0.506306 0.41627312 0.14441006 0.23932277 0.30655932 0.33055714 0.25046197 0.006496966 0.2198403 -0.18757051 0.014585799 -0.12800801 0.28409553 0.28926146 0.15879828 0.02313781 0.039395668 0.62474555 0.64513856 0.74692994 0.39626434 0.09302645 0.68922305 0.7581582 0.47525102 0.35297328 0.3317626 0.50639695 0.24775106 0.32780114 0.370922 0.13493276 0.09574211 0.70992345 0.6223074 0.54165876 0.7385372 0.7288171 0.60948026 0.72242045 0.70520055 0.51478386 0.6271399 0.11383495 0.25402123 0.3218595 0.43926316 0.5379056 0.36459547 0.3030023 0.3886525 0.44471535 0.34914052 0.3228473 0.4127657 0.47946972 0.49672335 0.50118816 0.47195715 0.44206533 0.49878785 0.504975 0.49400243 0.47876197 0.45219094 0.4939327 0.93569565 0.9481256 0.9502825 0.87689924 0.8994914 0.88002616 0.38830584 0.38765004 0.38538414 0.38055515 0.5766161 0.6133563 0.61796206 0.77025115 0.79534006 0.37838668 0.07114753 0.18836634 0.28553823 0.3765518 0.4026457 0.6143476 0.64545393 0.29351547 0.3628001 0.26323625 0.31122974 0.3862989 0.5884287 0.49496216 0.27950284 0.44262975 0.46521747 0.44743222 0.22944285 0.42526796 0.26922655 0.40004456 0.26955524 -0.009240031 0.03075166 0.05632612 0.39818263 0.42386585 0.39766115 0.38973388 0.42040837 0.45588332 0.40484154 0.49519438 0.42572072 0.40135056 0.6469903 0.42349404 0.6320681 0.6926196 0.3589092 0.0030852444 0.67060393 0.70436496 0.5903292 0.6788565 0.19948031 0.57383525 0.65859914 0.21076778 0.19073294 0.63356805 0.62104094 0.59992445 0.19828731 0.18580219 0.28561813 0.17910199 0.10545224 0.10470715 0.22757655 0.011913806 -0.011012159 -0.24270889 -0.25878933 0.18036982 -0.10394542 -0.07094763 0.11665768 0.25555393 0.1458347 0.1156008 0.22805378 0.29878938 0.44913125 0.29890773 0.1699591 0.28930062 0.5055848 0.35352978 0.36401346 0.20153533 0.24353029 0.36784434 0.15277845 0.6620683 0.7218067 0.71717465 0.6800238 0.69199765 0.68940675 0.7021378 0.6608854 0.632394 0.6877227 0.5866562 0.46832198 0.5468893 0.51914686 0.45451626 0.46101058 0.4664153 0.4645329 0.44305584 0.48791933 0.47467935 0.49487412 0.5095261 0.9477642 0.9534123 0.9328847 0.87060905 0.9126134 0.8474322 0.8550771 0.42836818 0.4283917 0.83637965 0.42678118 0.3941245 0.41145587 0.4155556 0.02348122 0.5562177 0.59405017 0.7245723 0.073279575 0.24040876 0.28211933 0.49102175 0.6519884 0.05734721 0.41928452 0.43106264 0.5166633 0.48870236 -0.11563874 0.40677655 -0.06239278 -0.12584409 -0.06730899 0.20910978 0.37193477 0.3552478 0.27260047 0.37014726 0.39987546 0.38852543 0.39751315 0.4500284 0.42592427 0.40802056 0.47261298 0.4697461 0.45859063 0.40298206 0.48790228 0.42837337 0.32301307 0.43147135 0.557786 0.36726952 0.31428862 0.33158004 0.5141847 0.5478867 0.15762465 0.16874638 0.18562382 0.31820258 0.5131485 0.098324835 0.4748687 0.57747126 -0.0060701277 -0.048973523 0.045982596 0.12940398 0.06558333 0.045760144 0.009616867 0.068028904 0.16063759 0.042710796 0.09936049 0.05982597 0.15792356 0.17022473 0.3409464 0.13000423 0.11476208 0.43995345 0.35841036 0.42884552 0.39203006 0.4167082 0.43239984 0.5099588 0.3837829 0.3623827 0.45792902 0.49804133 0.28471997 0.15146492 0.69282234 0.6254055 0.73206806 0.7285116 0.6491292 0.61283696 0.739933 0.71667624 0.62902665 0.7346095 0.5328521 0.49519774 0.7228335 0.72071993 0.389416 0.69637376 0.7168559 0.49809697 0.510508 0.33507213 0.35659721 0.54196656 0.5622693 0.49769118 0.46048993 0.6003333 0.61914676 0.71795106 0.72760487 0.7310522 0.927477 0.9121256 0.878809 0.8979634 0.86738497 0.7976408 0.72111684 0.45959592 0.46801648 0.8319596 0.8392977 0.60705453 0.4373866 0.43717942 0.46395347 0.4565444 0.28690207 0.12532665 0.7841271 0.3158456 0.22280502 0.19465162 0.020536475 0.40079868 0.45631975 0.7241734 0.07835207 -0.06335387 0.21720427 0.26600575 0.38529828 0.38236922 0.6686901 -0.12487836 -0.119512945 -0.2130605 -0.11950567 0.35370153 0.32476297 -0.077029005 -0.08086893 -0.29891098 0.11380624 -0.049926125 -0.083136566 0.3355626 0.30078605 0.41355032 0.38283908 0.3660751 0.2803476 0.32851595 0.45894307 0.33895478 0.51154304 0.28694844 0.35396275 0.55338037 0.0142119415 0.13398892 0.4622396 0.43711844 0.023205442 0.1192165 0.1540833 -0.112508535 0.045866508 0.112784274 0.046880197 0.0060080886 -0.36565256 -0.12509184 -0.16865042 0.23042624 0.022793166 0.257442 0.08074767 0.13458708 0.08601607 0.14772666 0.26088154 0.24971558 -0.17857136 0.5157165 0.45676112 0.16617016 -0.15021531 0.28766024 0.29034343 0.63368213 0.50007904 0.48870274 0.5398774 0.54768634 0.0033341367 -0.16264117 0.36108133 0.3572597 0.6863634 0.6126437 0.59396553 0.55516565 0.5203615 0.54801625 0.3186315 0.517793 0.08570428 0.70583683 0.7288867 0.49463427 0.7709398 0.75393206 0.5436146 0.40353373 0.77890253 0.7529005 0.39473915 0.77794135 0.7439242 0.356684 0.70419586 0.7800287 0.39169812 0.54410654 0.5662154 0.5798054 0.47550675 0.47946143 0.5425358 0.576415 0.64081085 0.5590281 0.6959177 0.6974578 0.6897985 0.81085896 0.7732817 0.8145747 0.804643 0.864643 0.85029083 0.813897 0.6868057 0.78832686 0.7675986 0.7282928 0.6289395 0.44456828 0.45592022 0.7665208 0.74123234 0.6715323 0.5066956 0.36116356 0.31464976 0.35076362 0.40254802 0.39088166 0.2519424 0.76035357 0.73487544 0.479109 0.35613596 0.16899799 0.17262806 0.013038568 -0.020550475 0.6372973 0.38310513 0.1855683 0.048603676 -0.014427252 -0.12722002 -0.027152635 0.3049717 0.35522512 0.5156779 0.24385273 0.08586662 0.51113164 0.2998164 0.23607507 0.38166285 0.28312266 0.51473665 0.691926 0.5610545 0.105429605 0.68395126 0.6060695 0.1248