# vtk DataFile Version 2.0
Really cool data
ASCII
DATASET POLYDATA
POINTS 4059 float
16.346136 14.233635 26.865807
16.36483 14.18958 28.008846
16.424894 14.366595 25.957361
16.201687 14.577635 26.73152
15.945853 14.869252 27.665516
16.092854 14.770354 28.49999
16.113262 15.472826 26.72092
15.890735 15.5319395 27.634954
15.979787 15.431669 28.450497
16.210583 15.472969 29.060417
16.206669 16.358385 26.821285
16.035421 16.366512 27.571304
16.0951 16.308224 28.29773
16.401415 16.435953 29.110489
16.26912 16.84675 27.290596
17.486635 4.7062817 25.945913
17.460815 4.78879 26.380642
17.18274 13.957432 25.032557
16.89111 13.881568 25.47802
16.692278 13.982987 26.246748
16.657152 13.815335 27.608522
16.79978 13.760667 28.652811
16.676262 14.140398 29.221214
17.214417 13.773546 30.385464
17.02006 14.466074 25.04368
16.616346 14.375159 25.615084
16.568731 14.442401 29.33943
16.909103 14.425097 30.101395
16.94198 15.000196 25.12779
16.599306 15.375374 25.741825
16.568052 15.389388 29.538122
17.11486 15.230842 30.362955
16.67361 16.056746 26.03235
16.653248 16.588352 29.379122
17.071415 16.223663 30.207466
16.852661 16.780777 26.279121
16.548822 16.964148 26.86953
16.527155 17.151726 27.490513
16.805557 17.367275 28.161623
17.074446 17.314274 29.35325
17.180882 16.965002 30.034313
17.0724 17.634462 28.20394
18.134617 2.9546702 25.899473
18.267418 2.7478588 26.53511
18.29457 3.0886097 27.390905
18.032372 3.7408597 25.144598
17.916191 3.4375124 25.74334
17.806757 3.7385345 26.551874
18.057777 3.580192 27.319305
18.238384 3.7806385 27.824932
17.807314 4.646293 25.073812
17.604881 4.5268154 25.507168
17.596895 4.509453 26.489351
17.86873 4.5591755 27.267166
18.188772 4.44908 27.848139
17.917742 5.2796373 25.055529
17.608454 5.2294564 25.662016
17.657644 5.2436266 26.349228
17.931396 4.958686 27.263348
18.260906 6.020969 25.863628
18.072855 11.010839 26.541206
18.318111 10.782047 27.19195
18.369905 11.303775 25.271263
17.984259 11.808021 25.876232
17.874466 11.722649 26.551003
18.228613 12.506861 25.144876
17.474161 12.96779 25.9172
17.688213 12.568986 26.778221
17.488716 13.12977 27.865335
18.055584 12.764837 28.61718
17.437029 13.097017 29.716644
17.459671 13.232936 30.049383
18.100533 13.1180315 30.856909
17.604355 13.76051 24.86564
17.494703 13.483246 30.589434
17.73767 13.600265 30.95522
17.525806 14.47303 24.72483
17.638996 14.381069 30.99511
17.566757 15.296247 24.854752
17.395224 15.825785 30.564032
17.40292 15.076103 30.790293
17.460405 16.336163 30.515272
17.307346 17.17138 26.493021
17.418753 17.520397 29.740255
17.668968 17.311329 30.169926
18.04434 17.016205 30.66736
17.630722 17.715904 27.575125
17.354233 17.683163 28.29682
17.904812 18.213089 29.417418
17.93043 17.867678 30.006882
19.2969 2.0684717 21.549177
19.103334 1.6876782 22.593258
19.41074 1.3644785 24.605099
19.08476 1.457827 25.612823
18.863506 1.7017754 26.605305
19.016247 1.8112154 27.196493
19.197426 2.614609 21.76965
18.538212 2.2319672 26.683678
18.711628 2.6240983 27.525389
18.966167 2.5857584 27.796701
19.389065 3.5074632 21.904617
19.10566 3.2499473 22.931952
19.00846 4.3884625 23.912392
18.360083 4.5486217 24.582039
19.034857 4.32347 28.831234
19.132856 5.3433366 24.490473
18.75152 5.4026923 28.450993
18.35667 6.1541476 26.200497
18.959227 6.6252985 29.674583
18.97155 6.9558444 30.58748
19.202288 6.949496 31.280155
19.229227 7.2304997 28.618313
18.785297 7.4322863 29.689373
18.850714 7.4862022 30.42035
19.09485 7.163001 31.26121
19.373434 7.690745 32.025986
18.75413 8.405457 29.713902
19.185297 8.106411 31.605616
18.973566 9.980466 25.859324
19.275015 9.7477045 26.868725
19.228151 9.902218 29.950483
18.920963 10.793282 24.976027
18.477688 10.526536 26.936962
18.746689 10.8514385 28.441086
19.062601 10.569985 29.416304
19.404596 10.850354 30.816679
18.71507 11.486 25.015915
18.909647 11.368406 29.767893
19.05735 11.327533 30.601963
18.940397 12.345707 24.766157
18.924364 12.952379 31.560444
18.490572 13.401169 31.26596
19.01422 13.668852 31.815722
18.403336 14.798955 24.605898
18.76257 14.514969 31.535961
19.160538 14.356199 31.748606
18.981129 15.666964 31.110363
18.67871 15.9283695 24.903687
18.526402 16.157618 30.989775
19.372032 17.110664 23.278603
19.187923 17.197742 23.642776
18.392876 17.779259 30.544516
18.586962 17.23247 30.729025
19.323702 17.978308 23.698221
19.13678 18.65137 24.520304
18.830696 17.994493 25.753544
18.460617 18.406906 27.847399
18.627502 18.407717 30.318378
19.041428 18.54366 30.632462
19.127848 19.390528 24.90924
19.109684 19.532455 25.340017
19.11007 19.74952 26.259043
18.64512 18.981558 27.710808
18.980787 19.367134 28.670506
18.82374 19.1517 29.500118
19.130127 18.980282 30.347157
19.237125 19.920258 25.57244
19.237164 19.946173 26.014763
19.230145 19.665901 28.46643
20.233639 -0.12228805 19.13484
20.138119 -0.2120152 19.54142
20.20703 -0.47784925 20.283293
20.275719 0.34677663 18.974642
20.034315 0.47615245 19.372051
20.314611 0.52159035 21.663397
19.398586 1.1937926 22.490223
19.84653 0.85297024 23.533108
19.95248 0.8173389 24.788284
19.538734 0.98370206 25.807028
19.804174 0.9469304 26.465302
19.709429 1.2603024 27.158154
20.218777 1.693318 19.989801
19.69293 1.7311732 21.144606
19.404707 1.5813361 21.66104
19.601498 1.5521967 27.476292
19.711569 1.7147164 27.634874
19.661863 2.4876707 20.924004
19.456257 2.2571523 21.324877
19.233437 2.8069718 28.151205
19.87961 3.182134 28.63834
19.873785 3.2533205 21.071924
19.499863 3.120552 21.405643
19.206335 3.4354308 28.538061
19.913015 3.605751 29.016582
19.71651 4.475815 29.349129
20.062538 4.3214803 29.710226
19.988224 4.8429046 22.523497
19.88806 6.79037 32.18738
20.021025 7.0113354 32.706142
20.37579 7.5305505 23.56124
20.065277 7.738658 26.582605
19.670425 7.6154838 32.468597
19.954643 7.635316 32.874706
19.69572 8.433512 32.36796
20.132502 8.375003 33.03204
19.310337 10.101646 25.130035
19.39584 9.53031 26.090483
19.694582 9.462903 31.157902
19.86639 8.977203 32.160934
19.43085 10.771818 24.640238
19.690912 10.80792 31.214722
19.674707 11.673299 31.431728
19.833841 12.530727 24.357876
19.32154 12.84808 31.974031
19.756449 14.270783 24.650455
19.695095 14.12898 32.16279
20.089373 15.973072 23.52232
19.390879 15.520618 31.461966
19.812338 16.742437 22.994135
19.769184 16.263638 31.078827
19.785759 17.409407 22.970514
19.703514 17.312881 30.823359
20.005983 18.278679 23.09594
19.479124 18.26473 23.522818
19.369455 18.384129 30.793535
20.189056 18.815727 23.2335
19.864777 19.276758 23.859432
19.498222 19.634108 24.479616
19.55914 19.206156 30.341345
19.647997 18.869013 30.687084
19.97532 19.794893 24.21336
19.702904 20.045021 24.781315
19.590803 20.283215 25.489895
19.667938 20.265863 26.370003
19.855885 20.319553 27.489515
19.8621 20.171156 28.491304
19.839209 19.855055 29.417488
19.726063 19.62064 29.882015
19.996298 20.562544 25.736359
20.035025 20.594322 26.210533
21.132563 -1.570009 20.03353
21.016108 -1.0162829 19.046701
20.92108 -1.3146297 19.732998
20.986212 -1.3697381 20.251608
21.10735 -1.1773204 20.765427
20.64611 -0.33416492 18.847881
20.457062 -0.63382363 19.293425
20.551857 -0.7035947 20.568665
21.110237 -0.6934402 21.125317
20.869875 0.19910401 23.221714
20.797108 0.23120353 24.54319
21.057907 0.32823512 18.393562
20.516602 0.39040706 18.71568
20.291065 0.866091 26.573902
20.496452 1.1713904 27.165838
20.539303 1.2989839 18.903965
20.509956 1.5767145 27.524076
20.458187 1.8621986 27.769531
20.978199 2.4018059 18.911219
20.561712 2.151697 19.610529
21.079922 3.0240076 19.57239
20.795359 3.8091068 29.505138
20.470493 3.910519 21.173737
20.79686 4.5572524 30.109259
20.50595 4.6890254 21.884287
20.545263 5.772348 31.285715
20.613293 6.8300056 22.590508
20.533697 6.4780445 32.393173
20.691162 6.9706445 33.172447
21.284626 7.1239295 33.75501
20.728994 7.675295 22.840591
20.46292 7.721141 23.30594
20.446287 7.5879617 33.21933
21.04898 7.816972 33.902946
20.85075 8.004039 22.912014
20.568708 8.097809 23.277733
20.607471 8.074187 33.4324
20.420929 9.625295 32.43561
20.828316 10.052671 32.46167
20.84327 11.579453 24.423382
20.660267 11.323135 32.047188
21.19112 12.085326 35.759346
21.10838 12.5786085 35.52879
21.296122 12.462898 35.99652
20.611399 13.543552 24.512726
20.837261 13.478607 33.908947
20.798153 13.746727 34.361084
21.037823 13.412221 35.47031
21.24298 13.162249 35.93447
20.697912 14.4028845 34.676167
20.913578 14.507376 35.314663
21.14481 14.4125 35.784233
20.209595 16.061504 23.164364
20.137705 15.729956 23.766441
20.145931 15.395729 24.583052
20.768475 15.564464 31.477049
20.900864 15.097342 32.447193
20.947199 15.012673 33.921726
21.068672 15.399321 34.519844
21.090332 15.2387705 35.144375
20.875008 16.781908 22.777872
20.241667 15.720196 31.453625
21.016731 17.732826 22.467276
20.54308 17.577019 22.652205
20.733116 18.44225 22.742332
19.968327 18.657936 30.78134
20.909498 19.126581 23.055819
20.603827 19.434046 23.499426
20.500214 19.245218 30.257858
20.33726 18.955496 30.619658
20.662361 19.84123 23.960495
20.483717 20.302242 24.71075
20.628033 20.426004 28.613098
20.428988 20.148584 29.135868
20.70936 19.790104 29.694424
20.523815 20.600288 25.629082
20.455833 20.568066 26.352343
20.506386 20.596231 27.63348
20.821686 20.58915 28.232681
21.604227 -1.6375718 19.713285
21.530315 -1.6225077 20.249699
21.728533 -0.9744364 18.775038
21.52264 -1.486659 19.407858
21.214632 -1.4374082 20.440914
21.638554 -1.0540681 21.115982
21.76499 -0.09209074 18.333954
21.328232 -0.5902919 18.610981
21.348583 -0.036254644 22.20956
21.384817 0.10944995 23.862976
21.793842 -0.20376262 24.43015
21.686815 -0.14147243 25.034134
21.472101 0.39106232 18.312271
21.154696 0.48325953 26.227882
21.063093 0.99223745 26.984774
21.63254 1.7320204 18.27018
21.295567 1.8690071 18.465906
21.667727 1.370912 27.139742
21.829058 2.3586931 18.29544
21.43701 2.332078 18.470407
21.117638 3.3130908 28.985897
21.696238 2.9685593 18.722073
21.351414 3.285287 19.428383
21.219498 3.5735228 20.247196
21.504353 4.072625 29.806051
21.481121 4.491114 21.593027
21.327082 4.783155 30.243685
[...]
POINT_DATA 4059
SCALARS features_00 float 1
LOOKUP_TABLE default
0.46371248 0.46403044 0.47911537 0.51322025 0.55316734 0.5261568 0.587397 0.61072254 0.5803379 0.5364375 0.5779392 0.5973449 0.5941371 0.521964 0.54769635 0.5594362 0.55143756 0.41881323 0.4159959 0.4160821 0.39837193 0.40335107 0.45139927 0.4264384 0.45617753 0.47177982 0.4757763 0.46195465 0.48819464 0.53671896 0.49588364 0.45581615 0.5524708 0.4819098 0.42192385 0.4971829 0.51822376 0.5120633 0.49034813 0.45283395 0.40954256 0.45131022 0.5106439 0.498429 0.47970134 0.53877485 0.54019785 0.51741797 0.4857074 0.46260172 0.5501272 0.5606245 0.5370736 0.49303252 0.4603808 0.53550816 0.5645448 0.56017804 0.49558067 0.55905604 0.36212286 0.28788805 0.40710986 0.35823932 0.30713093 0.3488658 0.3347435 0.2519748 0.26779005 0.20200121 0.34573567 0.36616218 0.30701876 0.3921256 0.39545524 0.3871503 0.41889507 0.42382473 0.44588083 0.42095876 0.44446963 0.40019256 0.4097085 0.4163217 0.391572 0.36424166 0.3668555 0.42901284 0.42064935 0.4027536 0.36020264 0.40359405 0.3511324 0.46975052 0.50338244 0.49080366 0.36013418 0.4961636 0.46939033 0.45051888 0.3502164 0.33553958 0.28738108 0.48153365 0.39348286 0.3324439 0.3633268 0.5432693 0.22861563 0.32192892 0.39276057 0.20663589 0.24680409 0.291423 0.38636276 0.3866998 0.24555159 0.34630036 0.44567102 0.36055475 0.055497445 0.44045374 0.3513247 0.058668826 0.0050523877 0.034382306 0.4103495 0.052122355 0.06982516 0.3610617 0.24909586 0.3286407 0.32160294 0.31000525 0.38042998 0.34569418 0.34890682 0.28425062 0.3514486 0.521369 0.48372966 0.38708282 0.35203722 0.50826186 0.48285276 0.31775713 0.28946543 0.43333837 0.45260397 0.5342725 0.5310349 0.4718002 0.28141743 0.47177714 0.49677795 0.48561868 0.55652606 0.52102184 0.47608012 0.6965244 0.6963165 0.653461 0.6411084 0.60111666 0.36771822 0.36622995 0.2937005 0.34981728 0.4739036 0.47040185 0.45704657 0.38898647 0.37344736 0.36602888 0.4552124 0.43821296 0.336798 0.35643592 0.4162095 0.33863407 0.3164416 0.33884698 0.3912202 0.32139435 0.31376362 0.27876958 0.21287598 0.38181072 0.36626935 0.1947653 -0.097883485 0.38339972 0.36734635 0.34808785 0.3425363 0.44079503 0.39681023 0.13507587 0.28351483 0.421025 0.0248276 0.08133291 0.32234344 0.20078093 0.009815961 0.24344078 0.31447104 0.31583408 0.51116496 0.23811945 0.552258 0.34830448 0.5306644 0.51822424 0.44094247 0.51621616 0.5238996 0.55900025 0.5143204 0.491629 0.5573056 0.5846478 0.57740045 0.51315904 0.4563746 0.5050131 0.53631186 0.53176373 0.5600676 0.52605116 0.66941965 0.7487261 0.7130593 0.6512612 0.5652035 0.71307355 0.73739016 0.6003079 0.48069966 0.16373926 0.26681077 0.64454544 0.64181584 0.4228402 0.3747299 0.5400728 0.34613457 0.33477506 0.5155448 0.42152363 0.45450184 0.25832003 0.26435274 0.23331863 0.23873772 0.24514604 0.2570695 0.3306625 0.3391873 0.31528336 0.27801055 0.24220763 0.3441651 0.299215 0.28140774 0.26330727 0.323699 0.17622073 0.087190785 0.19186273 -0.019593842 0.3707261 0.4094827 0.3886559 0.14102681 0.4711371 0.5275648 0.46843696 0.42558494 0.5531778 0.51801854 0.47708976 0.36099607 0.23171316 0.06732972 -0.032764763 -0.09632355 0.4852687 0.4899804 0.5088429 0.46872246 0.11958386 0.55023915 0.5579455 0.528908 0.47401404 0.5011935 0.50938946 0.5263162 0.503412 0.52648085 0.57520866 0.5114156 0.5257004 0.5237537 0.54219794 0.50040257 0.46794134 0.49304053 0.67981863 0.6237083 0.72393394 0.7138647 0.61498296 0.47223514 0.6566905 0.7184914 0.22025436 0.18121898 0.23840605 0.3049374 0.6327862 0.33600533 0.30560377 0.56844556 0.55787015 0.22703567 0.5677467 0.55532575 0.23222968 0.5452727 0.47384942 0.32123318 0.21082303 0.08492067 0.19552791 0.2585103 0.2322329 0.3136922 0.27081618 0.2435413 0.27249447 0.24028218 0.25309703 0.21955507 -0.115029536 0.18873833 0.14842786 0.099458575 0.32866997 0.30650643 0.3665204 0.3578989 -0.0018649548 0.40287265 0.35652798 0.44108006 0.27731735 0.14941047 -0.13495721 -0.075578034 0.2570981 0.47844124 0.44579643 0.3125247 0.039545357 -0.07850173 0.3992509 0.45620418 0.5429221 0.25669292 0.4991836 0.46326292 0.44518495 0.5351014 0.45572957 0.511411 0.44024295 0.46732798 0.48622626 0.5098289 0.5223587 0.49880552 0.4699608 0.46653786 0.49670225 0.6521225 0.59665895 0.6450381 0.48867977 0.598035 0.14301127 0.30246937 0.35318273 0.34606677 0.5455139 0.2485053 0.5541986 0.14747906 0.5643413 0.08659519 0.5657307 0.5485958 0.15807778 0.45338643 -0.09414769 0.11395797 0.019266605 0.048407152 0.20304547 0.2737698 0.21622972 0.18170133 0.17904903 0.13807184 0.07373166 0.32034683 0.21564499 -0.36780363 0.15346316 0.28903872 0.30491513 0.25558552 -0.4833177 0.25146073 0.29433158 0.26532102 0.19473076 0.31086677 0.32523316 -0.043606274 -0.011328027 0.32956928 0.2561832 0.116074 0.07362163 -0.061260235 -0.005938068 0.35226607 0.14919221 -0.020433187 0.27103657 0.31832364 0.29049912 0.36637083 0.53692055 0.4500935 0.41418037 0.49347937 0.38067564 0.2880243 0.3752182 0.42551142 0.44469124 0.48786473 0.5084529 0.58090216 0.53927344 0.5665072 0.57998353 0.39163834 0.329723 0.33858636 0.510207 0.25218195 0.35065007 0.35683087 0.3229584 0.4915388 0.28510228 0.5103923 0.22812927 0.5236076 0.49647886 0.398417 0.6362885 0.7055056 0.7048063 0.27287182 -0.01420282 0.08420086 -0.04675476 0.34563354 0.5434927 0.6299678 0.63636595 -0.17027809 0.14309448 0.43241423 0.3900408 -0.041285217 0.17740439 0.1647253 0.21471243 0.16553158 0.21229768 0.26483315 0.10739526 0.24484646 0.27782416 -0.15774891 0.042888947 0.26123208 0.28754228 -0.030098101 0.23070498 0.10704449 0.12891868 0.043709774 0.08253174 0.121862754 0.052762225 0.0012730323 -0.23694873 0.1079318 0.35426763 0.10672611 0.085264325 -0.22046138 -0.035185836 -0.016997583 -0.081362344 0.08749219 0.26319724 0.18887858 0.3203958 0.3719124 0.5092589 0.5045181 0.4887887 0.33128387 0.46469465 0.5252876 0.5885214 0.57408535 0.5391615 0.27446422 0.4999829 0.47519964 0.5793139 0.60245764 0.5884853 0.24809638 0.22499132 0.4054432 0.56474704 0.5312511 0.55585074 0.5690584 0.46639818 0.20512953 0.32505757 0.51205164 0.5051527 0.23149055 0.31179523 0.34854555 0.3519296 0.47326076 0.34054095 0.32863384 0.44872153 0.31984785 0.4657644 0.459015 0.2404873 0.7370219 0.8435252 0.81476545 0.7694286 0.23958257 0.46853575 0.7072726 0.7508548 0.7095299 0.6653246 0.14279002 -0.08993202 0.059547752 0.61940676 0.59260154 -0.14892045 0.2598341 0.21425858 0.10988345 0.287251 0.28953204 0.17738014 0.1432547 0.23976898 0.20510161 0.12580095 0.18716057 0.29494873 0.24689819 0.021010526 0.43433678 0.36505988 -0.09075821 0.3957895 0.16085996 0.028226878 0.22295904 0.35293698 0.13057274 0.32645854 0.436745 0.51028997 0.11553132 0.09938149 0.50916636 0.5607706 0.18239555 0.26890275 0.52059287 0.5605998 0.21126503 -0.14571992 0.037413396 0.27310964 0.21153045 0.21950038 0.44296497 0.24329063 -0.048968256 0.25830284 0.3340759 0.55409455 0.52245915 0.100866064 0.10710378 0.41082764 0.54431874 0.59342384 0.5514175 0.5231738 0.17064516 0.09923293 0.5730659 0.5850858 0.5257093 0.33675146 0.24163768 0.5521664 0.20992088 0.11165352 0.33686304 0.34752923 0.4925496 0.51417 0.34059042 0.31592757 0.46035025 0.46447313 0.30458802 0.422343 0.7226912 0.8520521 0.8480996 0.7626735 0.34468672 0.19566865 0.26455346 0.71635544 0.6716226 -0.04995912 0.6361101 0.4700136 0.30470818 0.015590349 0.32386485 0.3061313 0.1418392 0.4534951 0.3535701 -0.011618119 -0.04658935 0.53468555 0.5078294 0.5176838 0.16387865 0.34521806 0.3954286 0.41202232 0.5066805 0.34276372 0.26768148 0.5883603 0.23032162 0.21790093 -0.12650055 0.5836145 0.21315587 0.2162957 -0.12808096 0.4967072 0.22357018 0.105395526 0.24619961 0.25147197 0.22461537 0.16579095 0.43522143 0.28381437 0.28915945 0.27136707 0.057597313 0.017519932 0.002483204 0.21581149 0.1272429 0.34503013 0.5363046 0.4964955 0.4831248 0.35768744 0.27057916 0.5928663 0.51837415 0.35012114 0.58666456 0.59882545 0.29710925 0.20877486 0.120009616 0.13422528 0.26568565 0.31177536 0.55309284 0.28848544 0.4836352 0.16152465 0.6685078 0.79690033 0.781445 0.7462876 -0.17180909 0.15648316 0.71880436 0.67797905 0.642866 -0.08992063 -0.17880192 0.50118244 0.62750924 -0.08014394 0.4629435 0.4375875 0.27238303 0.33389607 0.14852431 0.30950624 0.22416328 0.11539957 0.5371345 0.513409 -0.028243057 0.54569346 0.5348369 0.056213535 0.13097155 0.546497 0.52096593 0.30211064 0.40653893 0.49162787 0.51620024 0.3454305 0.5804611 0.28837627 0.5675797 0.19286072 -0.14822745 0.35301402 0.2018434 0.22948627 -0.21698478 -0.20292473 0.2682674 0.009835765 0.3243706 0.18841669 0.13204905 0.18425132 0.3100235 0.3537688 0.36404967 0.18403587 0.2915163 0.22848876 0.64864874 0.6351204 0.6434628 0.1869226 0.3135294 0.32908383 0.43160573 0.42952567 0.35983804 0.34191734 0.71125746 0.7028332 0.673779 0.739167 0.7291184 0.6889905 0.58638215 0.3012996 0.18083274 0.5600076 0.53803784 0.13078749 0.09757241 0.077356875 0.1812284 0.20115477 0.1585636 0.13024896 0.08453103 0.045119077 0.69899327 0.7327538 -0.031272843 0.060527243 0.64593756 0.65325123 0.6469828 0.012403626 0.52825606 0.45977423 0.17878243 0.38355833 0.12843484 0.21497905 0.25529662 0.12610757 0.27797794 0.5253099 0.50922805 0.002765445 0.5246317 0.21919347 0.5188314 0.44813555 0.39792132 0.36895788 0.42388362 0.31323433 0.3973909 -0.20076889 0.04302863 0.3540765 -0.4734562 -0.17840117 0.17638443 0.40442967 0.37475163 0.3353331 0.18456918 0.41953984 0.44847244 0.36611748 0.29905286 0.25720453 0.48242047 0.50750077 0.38940942 -0.024826214 0.21578194 0.2167017 0.4788419 0.42577356 0.38379073 0.44483885 0.4513593 0.42046952 0.35297698 0.6629164 0.55652964 0.45462805 0.47454983 0.45595592 0.7454572 0.7507854 0.7227382 0.6771357 0.6064532 0.74225396 0.7208221 0.67054564 0.27242982 0.22456954 0.09864398 0.09104103 0.16556478 0.3432044 0.09337532 0.14765131 0.16318494 0.23992562 0.0795275 0.19731593 0.21139953 0.17763697 -0.028784513 0.10657631 0.0915401 0.11826182 0.0901177 0.014353838 0.38968328 0.23966941 0.18049683 0.18665099 0.46020788 0.20208757 0.44882882 0.26683098 0.37092084 0.27309683 0.35156497 0.27688998 0.24451035 -0.013376284 0.50712466 0.40800083 0.49713308 0.49560857 -0.25366205 0.03192558 0.5018101 0.10226483 0.5289564 0.50372416 -0.14111297 0.20675118 0.5400854 0.5479572 0.4901298 0.3304917 0.2064472 0.42227146 0.33517247 0.5579145 0.08092391 0.16662833 0.16980365 0.43735552 0.45497245 0.4819649 0.4503575 0.71338713 0.53264225 0.70492935 0.6842487 0.6341772 0.5857822 0.3487349 0.32423133 0.44767123 0.11209595 0.15244198 0.16216497 0.35534173 0.1550692 0.16650899 0.2197769 0.2904103 0.31102836 0.29133108 0.18946947 0.18481848 -0.09365475 0.17730775 0.148873 -0.12707882 0.09571106 0.03388134 -0.064633965 0.1001347 0.16483918 0.19412744 0.19271474 0.13529158 0.20156138 0.18856399 0.25339192 0.1309804 0.19600129 0.14221387 0.118204445 0.15588738 0.46378392 0.33276495 -0.059100024 0.22785437 0.5141165 0.15008976 0.3118602 0.35123396 0.5957966 0.25207025 0.3611105 0.3774879 0.36991322 0.65572345 0.6006179 0.34740806 0.37990147 0.37079018 0.60338897 0.6203524 0.35377675 0.6286714 0.6254957 0.59411 0.3930042 0.09988816 0.04381734 0.45654362 0.47866502 0.42387986 0.43209636 0.4810881 0.3744111 0.100403704 0.12705901 0.09315872 0.06881139 0.540236 0.5545975 0.5607274 0.5410066 0.4515848 0.43527192 0.4932518 0.51858735 0.16959637 0.14318007 0.047904298 0.05437157 0.0939574 0.11965931 0.076736376 0.19075958 0.30911225 0.33388382 0.36169606 0.26866433 0.15816227 0.13482553 0.06275056 0.045511823 -0.12547447 0.025841152 0.003924608 0.07874219 0.10987118 0.16765267 0.19676752 0.11467585 0.18286186 0.07469873 0.17614415 0.14715171 -0.03813505 0.15279232 0.054441795 0.13395336 -0.018542595 0.11255153 0.09357605 0.5410475 0.57777596 0.5711183 0.396972 0.18703254 0.14529938 0.20264407 0.5079994 0.5626024 0.5401694 0.50476426 0.6720433 0.55328673 0.3281821 0.45648813 0.45579284 0.475537 0.45115623 0.72486216 0.35222453 0.33206007 0.3223911 0.40495166 0.41536987 0.778903 0.7752992 0.3484189 0.7423161 0.69268334 0.4102576 0.2126747 0.3323967 0.3452658 0.31587732 0.66978276 0.6442581 0.60360897 0.5647985 0.39352345 0.4390301 0.41110253 0.33405387 0.27057976 0.062103193 0.08642684 0.25543895 0.4298966 0.30978328 0.10056745 0.19028705 0.121075734 0.115605064 0.14315847 0.38074654 0.40648514 0.4164761 0.44602346 0.20182046 0.11690051 0.23034014 0.22203812 0.5163207 0.57755494 0.55804634 0.57986474 0.49366626 0.45027098 0.51491153 0.11737178 0.06065878 0.15325776 0.25344443 0.47383177 0.24499756 -0.102470726 0.031270094 0.38936725 0.35785583 0.3066649 0.31084713 0.33136645 0.19603606 0.16659799 0.1032197 0.111112505 0.11594834 -0.06310685 -0.026663637 -0.029548913 0.031304546 0.029262446 0.011416649 0.04211873 0.067694545 0.095734335 0.10664345 0.17142391 0.30383626 0.13385406 0.2563009 0.3432101 0.1997672 0.32329097 0.1255784 0.03548464 0.07887567 0.25327107 0.13812408 0.32423085 -0.019976519 0.47300464 0.5029599 0.49449617 0.43323684 0.09861622 0.02458173 -0.05837502 0.39865562 0.531479 0.46637994 0.4260112 0.16317463 0.066882715 -0.011013493 0.35570318 0.47920123 0.38886362 0.7287747 0.6734442 0.17794333 0.4193798 0.4028343 0.79237664 0.8377367 0.14145261 0.16883865 0.3369024 0.3465941 0.34084356 0.5755397 0.62529576 0.8263 0.8317432 0.38165176 0.04389686 0.1458438 0.22152975 0.03311004 0.18899696 0.21751672 0.2781719 0.66356575 0.7097193 0.733458 0.7805327 0.67938685 0.6073812 0.54330754 0.2263644 0.30450934 0.18150052 0.67871904 0.7333635 0.74296737 0.6703862 0.655879 0.5843368 0.38426125 0.37263188 0.31631076 0.1917878 0.16031104 0.1744597 0.16048804 0.2786636 0.29918045 0.23544124 0.21756552 0.32317027 0.27951136 0.2333682 0.13878073 0.2141994 0.23124547 0.30965132 0.26134905 0.30488154 0.6195089 0.60013527 0.5455852 0.5692147 0.6033774 0.6012051 0.51482356 0.4326726 0.35476866 0.26368776 0.3003899 0.47209257 0.52198136 0.0057619065 0.33017677 0.078271806 0.17519051 0.35605466 0.33709314 0.38009888 0.3814674 0.079144396 0.28721082 0.2341636 -0.06277524 0.22693661 0.033773765 -0.037157707 -0.18959521 0.0040638763 0.23994352 0.29577178 0.32548258 0.27430817 0.030531332 0.048158713 0.059150875 0.31961495 0.35418352 0.30724016 0.33296824 0.27982628 0.16932768 0.28086835 -0.35193896 -0.31460714 0.16825637 0.33228958 -0.2367138 -0.43565604 -0.010817824 0.053270668 0.3993811 0.36215436 0.19976929 -0.086948976 -0.009966746 -0.2936348 -0.31144473 -0.01282274 0.37827381 0.31526536 0.30542612 0.20616934 -0.10404025 0.115198664 -0.17375296 0.043314792 0.3118804 -0.024161119 -0.02463035 0.09715223 0.23855138 0.32815072 0.8311986 0.76445985 0.58132356 0.35190845 0.1955919 0.25561902 0.5647006 0.6593785 0.83221936 0.7644024 0.62205017 0.17175508 0.2485066 0.11442575 0.12597992 0.17638525 0.28397977 0.73329055 0.78685653 0.7341192 0.5524695 0.2778482 0.26918477 0.2716958 0.1766453 -0.07230877 0.019875797 0.098568596 0.11232052 0.12750113 0.4690814 0.6620456 0.75141776 0.7863091 0.8052253 0.25825122 0.027359772 0.10293804 0.13166665 -0.026065193 0.69040394 0.7423694 0.78122973 0.20004086 0.18027505 0.18191701 0.11463959 0.17805621 0.13601625 0.19881648 0.23975432 0.29971677 0.3122412 0.29551077 0.24425603 0.26466852 0.27543178 0.3381285 0.34465075 0.33444467 0.3310218 0.33207935 0.5935072 0.56664455 0.37933967 0.3783604 0.3462193 0.29511902 0.523914 0.5289946 0.28517902 0.101780646 0.22638445 0.2958624 0.30778673 0.34201336 0.039219365 0.26962927 0.23405054 0.047813073 -0.11602584 0.07970593 0.20043054 0.06463074 -0.0023558736 0.123725325 -0.2072093 -0.03698644 -0.0013193488 0.11288438 0.2400809 0.23259738 0.42352775 0.30278087 0.16980344 0.16801117 -0.59112215 0.2762481 0.2591842 -0.26479352 -0.38878223 -0.4057516 -0.33761105 0.15721521 0.24152705 0.08814288 -0.43812662 -0.036157716 -0.00454814 0.4141443 0.10563325 0.08295576 0.18823832 0.3723548 0.3152891 0.21706654 0.08790907 0.067998886 0.24811153 0.20126356 0.19499989 0.20757183 0.1814248 0.05578335 0.2626488 0.30888534 0.23526645 0.034735277 0.32727864 0.3458358 0.26207685 0.41721815 0.304898 0.5781399 0.68065536 0.27487534 0.29139343 0.2690367 0.12979819 -0.14651164 0.8035352 0.2646463 0.19712403 0.13143934 0.13885295 0.81583583 0.83478653 0.035127282 0.048700202 -0.020302787 0.043833394 0.10369007 0.1433427 0.5088573 0.643711 0.7329244 0.7996986 0.82926977 0.08455027 0.08629634 0.1991301 0.019276334 0.27278548 0.31072518 0.23896609 0.29614398 0.3383639 0.37077945 0.37678766 0.36086878 0.3503721 0.3491818 0.3396906 0.36954203 0.3719226 0.3537835 0.29040772 0.32479453 0.367296 0.34609202 0.24873972 0.22304551 0.13245878 0.14004508 0.18115452 0.29562363 0.214879 0.09016766 0.13205996 0.065672606 -0.06842893 0.0031432658 0.02240692 0.4179837 0.40489 0.33549508 0.3318878 0.27411345 -0.008610271 0.34972578 0.32172263 0.35559985 -0.076972514 0.1185343 0.28228205 0.1471816 0.46243325 0.3201168 -0.28903574 0.07142764 0.52334213 -0.57116467 0.23213363 0.36639857 0.390861 0.5375469 -0.38438708 -0.55401886 0.3356585 0.33686236 0.35431057 -0.5209566 -0.27790034 0.29072756 0.18898259 0.2632814 0.14071709 -0.025149781 0.1530119 0.112099245 0.35235685 0.390411 0.30831861 0.16499573 -0.054173104 0.11294288 0.16934687 0.33713746 0.025507607 0.059084404 0.20120488 0.32485542 0.28655457 0.07592757 0.06595214 0.321371 0.19098957 -0.0034406036 0.36387512 0.2945098 0.03443089 -0.10027066 -0.07978113 0.82190603 -0.060024843 0.11717963 0.8459153 0.006262973 -0.009064645 0.0843395 0.14956912 0.08496572 0.3554139 0.44221088 0.5456324 0.70016354 0.8020793 0.8375673 0.01948894 0.021778652 0.020001471 0.080423325 0.67327005 0.24116954 0.30194235 0.34573328 0.3833032 0.38882303 0.36984655 0.36220044 0.35555232 0.33521312 0.3723402 0.36105853 0.34558392 0.35692072 0.34509552 0.24702549 0.18481551 0.22978863 0.027532347 0.18401171 0.123669975 -0.07466531 0.07272727 0.41562185 0.44151992 0.4231668 0.3746784 0.32721514 0.30810726 0.21606782 -0.019152291 -0.0700066 0.3674994 0.42988175 0.42752296 0.33951628 0.3110522 0.28724498 0.42594045 0.39191067 0.24854025 0.28717938 0.267075 0.5155058 0.4663036 0.0036475435 0.1454712 0.10425299 0.18156654 0.5138514 -0.13761325 0.18582854 0.33294183 0.62447524 0.40830582 0.58036363 -0.5005497 0.3845073 0.34904078 0.473136 -0.13730304 0.2720759 0.38134733 0.39252573 0.22510129 0.108883485 0.27502146 0.4205721 0.43775415 0.4908879 0.33406803 0.38234094 0.47608206 0.541823 0.45689437 0.5401152 0.22460487 0.42098933 0.51290333 0.23638666 -0.11561226 0.7340332 -0.050796784 0.8146163 0.1405496 0.82808864 0.033216797 0.003979869 0.1494038 0.058034897 0.44734377 0.52782077 0.6649094 0.7691823 0.8159206 -0.0033658836 0.05803389 0.27015 0.26737434 0.15021555 -0.008396808 0.06427611 0.35124356 0.346708 0.34286225 0.3297452 0.28976882 0.31846368 0.33282563 0.3324331 0.24878766 0.28325582 0.28690556 0.3612434 0.28084365 0.29322153 0.13338585 0.09207693 0.31632632 0.30322725 0.23894882 0.17861444 0.23678723 0.043996252 0.3936295 0.42725706 0.41210634 0.27450067 0.3059742 0.33853564 0.29617703 0.20509562 0.18201897 0.029658968 -0.08324752 -0.050703976 0.38775373 0.3142853 0.2632898 0.49066573 0.42847097 0.023472458 0.19072485 0.553872 0.5266547 0.016556203 -0.004235685 0.1401103 0.5797548 0.41687167 0.62837774 0.34640166 0.6442225 0.59808576 0.49646494 0.48994318 0.28329816 0.28118607 0.16775014 0.4591413 0.45046324 0.39465407 -0.020263322 0.44243854 0.56923604 0.62045914 -0.16462825 0.29863712 0.5483587 0.6070843 0.5882139 -0.26511824 0.58155096 -0.2389934 0.56165457 0.055985704 0.15639915 0.28752622 0.46494496 0.540243 0.7383241 0.26316193 0.06823616 0.4702487 0.5543509 0.654233 -0.038411796 0.037074503 0.11684274 0.11625463 0.16473535 0.12446208 0.16788967 0.19214173 0.15711805 0.020789944 0.14627695 0.2598152 0.26396212 0.20501599 0.25028104 0.31177914 0.3484407 0.33763814 0.24814236 0.14915198 0.3894391 0.42337912 0.40687627 0.21363515 -0.103750795 0.17524293 0.34138465 0.279853 0.17510295 0.19097571 0.17175646 0.13068342 -0.0054559186 0.25090608 0.2823314 0.3439097 0.30615672 0.2824713 0.3549472 0.21158494 0.18644209 0.033795282 0.13168451 0.23782699 0.1886898 0.54436314 0.49856877 0.350354