# vtk DataFile Version 2.0
Really cool data
ASCII
DATASET POLYDATA
POINTS 4095 float
22.321228 33.244602 40.838734
22.306702 33.1975 42.151222
22.370678 33.25857 43.054794
22.2285 33.682938 40.61698
22.11181 33.631287 41.712265
22.085487 33.734367 42.469856
22.2778 33.680347 43.298244
22.32935 34.400738 40.05194
22.152311 34.516277 40.618862
21.923529 34.35691 41.57576
21.806782 34.697582 42.42767
22.052385 34.61242 43.28623
22.313366 34.741272 43.67899
22.319551 35.273056 40.4973
21.954 35.422596 41.791103
21.90086 35.535442 42.48783
22.082321 35.35834 43.280437
22.158432 35.889473 41.735935
22.15062 36.05057 42.44171
22.154076 35.882732 43.097282
22.738312 33.1988 40.04638
22.665524 33.067802 40.664806
22.74043 32.847923 41.63915
22.793922 32.808537 42.726196
22.737627 32.977875 43.314785
23.135147 32.95524 43.847027
23.161943 34.010612 38.976944
22.704077 33.611526 39.806225
22.42923 33.46082 40.36248
22.562557 33.386116 43.60855
22.901426 33.521107 43.99454
22.62509 34.234844 39.668285
22.68881 34.506577 43.926903
23.391115 35.684673 37.916973
23.063488 35.314007 39.041508
22.718662 35.50476 39.625732
22.507235 35.7642 40.18021
22.36841 35.638878 43.517227
22.689056 35.4094 43.750587
23.406597 36.39168 37.77341
23.216867 36.394592 38.636345
22.925917 36.23933 39.718067
22.52956 35.882774 40.462593
22.619026 36.41246 41.690247
22.57519 36.413654 42.446953
22.623997 36.11265 43.24697
22.86242 35.836037 43.62969
23.439249 36.92124 38.512714
23.159796 36.832047 40.46773
23.176931 36.797153 41.287758
22.990444 36.598766 42.407513
23.398846 32.48121 43.2081
23.99698 33.23397 39.036247
23.550718 33.053276 39.684994
23.257072 32.510803 42.774837
23.380312 32.633564 43.52426
23.56834 33.035187 44.0049
23.840834 33.90829 38.35504
23.4025 33.510727 44.177395
23.740486 34.763496 37.865627
23.640451 34.596096 44.110733
23.737877 35.9185 37.070717
23.534643 35.560722 37.693222
23.410847 35.309643 43.857273
24.247852 36.435356 36.381996
23.884968 36.587013 36.78153
23.532667 36.456707 37.248512
23.340961 36.171852 43.3111
23.508844 35.789703 43.731262
23.888294 37.29158 37.072746
23.597141 37.14588 37.497322
23.691822 37.384666 38.676292
23.76105 37.312378 39.60501
23.625736 37.16167 40.799866
23.689028 37.00861 41.036777
23.4067 36.602295 42.621197
24.103683 37.790817 37.05269
24.089113 37.96289 37.719894
24.130554 37.896545 38.30536
25.164413 27.088646 34.713505
25.132357 27.048824 35.27273
25.263863 27.082476 35.89291
25.12956 27.740974 34.130756
24.866566 27.68465 34.576183
24.775106 27.708256 35.38776
24.954082 27.664324 36.05912
25.281408 27.829592 41.900753
25.28259 27.855316 42.479088
25.341106 27.935905 42.916805
25.065294 28.442749 34.072647
24.711967 28.48041 34.635674
24.630768 28.368156 35.46583
24.869736 28.47274 36.42514
25.21877 28.637873 37.6692
25.216194 28.3251 41.788475
25.206415 28.599571 42.627365
25.307983 28.467175 42.986404
25.132128 28.999357 34.166588
24.816124 29.01775 34.83493
24.842579 29.276684 35.35995
24.878075 29.336592 36.84777
25.062431 29.37391 37.63534
25.288202 28.964804 42.41764
24.89259 29.946733 36.644676
25.424538 30.304157 38.084732
24.981565 32.17055 40.60845
24.161278 32.397785 41.214718
24.91898 33.09541 37.807514
24.44536 32.744926 43.303535
23.952652 33.09269 44.034172
24.385258 33.8496 37.82648
24.06311 33.620003 44.111034
25.163643 35.122234 36.427402
24.068636 34.239693 44.09173
24.57891 35.78547 36.44794
24.492329 35.048534 43.483147
23.974976 35.3016 43.75451
24.505215 36.617218 36.227364
24.002884 36.35101 42.597664
24.083439 36.22265 42.74849
24.754763 37.332825 36.126324
24.351585 37.423103 36.45235
24.665194 37.541683 40.395264
25.358723 38.428566 35.642845
24.676754 38.329853 36.6866
24.50896 38.490597 37.600765
25.051826 38.63531 39.173817
25.232975 38.063454 40.41282
25.385828 38.892956 35.883743
25.048643 38.96599 36.82639
24.929874 39.26972 37.516857
25.007557 39.203587 38.423763
25.265146 39.754337 37.697277
26.029236 26.314016 34.862946
26.18085 26.405703 36.074673
25.72427 26.965073 34.082264
25.640974 26.696703 34.536827
25.548574 26.634777 35.38524
25.765676 26.812574 36.279575
25.643833 27.279535 37.095886
26.197758 27.154596 40.952785
25.91642 27.177216 41.676617
25.89664 27.19938 42.465015
25.987371 27.234886 42.841515
25.775757 27.534853 33.740753
25.763777 27.621702 37.52875
26.148388 27.592237 40.4563
25.567978 27.572966 41.60292
25.498854 27.508884 42.487053
25.731941 27.54761 43.064533
25.627855 28.293287 33.780556
25.81 28.965576 39.272095
25.672337 28.499094 40.66805
25.60051 28.446854 43.294617
26.071617 28.344894 43.672142
25.672823 29.11557 33.99754
25.350956 29.495747 34.432484
25.523659 29.18897 39.141136
26.076237 29.670542 41.20897
25.68201 29.636705 42.35569
25.554049 28.974554 43.134003
26.085873 28.913227 43.63654
25.838404 29.875278 34.287388
25.458456 29.84884 34.90445
25.516588 30.426826 38.62953
26.33917 29.817919 43.320496
26.303022 31.592033 32.41071
26.037113 31.839483 33.172672
26.002586 31.409874 35.954765
25.597553 31.146357 37.148342
25.557594 31.720728 38.062023
26.375574 31.553577 41.17328
26.129871 32.19297 32.693424
25.836712 32.617416 34.062668
25.721745 32.204357 34.59541
25.625368 32.674263 41.66756
25.281332 32.761665 42.121693
26.327024 33.08353 32.847366
26.20927 33.166435 33.471813
25.889608 32.948654 34.420517
25.563591 33.374836 36.789192
25.770561 34.92065 36.136208
25.497524 35.445126 36.189438
26.302832 36.85353 34.623943
25.915964 36.374535 35.624557
25.895447 37.717987 34.873825
25.577724 37.58581 35.30624
25.934834 38.502148 34.77424
25.538303 38.609234 35.497868
26.196718 37.856823 41.93518
26.029285 39.03972 34.850334
25.735542 39.195675 35.734505
25.445385 39.345177 36.35081
25.536316 39.385563 39.406353
25.830048 39.412193 40.48639
25.760353 40.260456 37.9665
25.495117 39.913494 38.36743
25.523336 40.073315 39.04067
25.941423 40.46988 40.214413
26.188824 40.69935 37.8115
26.270323 41.322453 38.80733
26.128477 41.263897 39.388462
26.207146 41.088276 40.076805
26.501436 26.400032 34.30256
26.584671 26.190641 35.62667
26.83851 26.163149 36.60359
27.131199 26.131283 36.876057
26.453915 26.831299 33.971657
26.80765 26.59894 37.54312
27.081905 27.208422 39.50333
26.870607 26.90103 40.573727
26.639723 26.824486 41.637585
26.638777 26.853909 42.440826
26.591625 27.161125 43.135925
27.027655 27.226137 43.69305
26.582777 27.295998 33.693184
26.321882 27.602957 43.527023
26.511442 27.788412 43.753727
26.586555 28.69321 43.97052
27.101217 30.288301 32.84663
26.59112 29.76345 43.66981
26.75504 29.513174 43.98785
27.056063 30.550848 32.13125
26.51819 31.112183 32.3109
26.59878 31.588366 31.97531
26.88537 30.818474 42.64682
26.642666 32.2598 31.964235
25.9849 32.994167 41.751022
26.797834 32.946102 32.184395
26.71388 33.26323 32.572117
26.143713 33.55836 41.79434
27.12264 33.82057 32.73634
26.76468 34.40017 33.41369
26.045118 34.787014 42.627632
26.982939 35.523117 33.727024
26.791769 36.049683 34.400024
27.239594 35.977024 33.297604
27.041643 36.140102 33.876766
26.687433 36.40416 34.490932
26.817665 37.336376 33.874924
26.697273 38.515003 34.25474
27.016356 38.01541 42.54318
26.515982 39.405952 34.938972
26.952145 39.729927 41.555866
26.859203 39.84792 35.799202
26.847088 40.241676 36.651455
27.081781 40.52006 37.27043
26.676153 40.446342 41.202938
27.238173 39.97364 41.811512
26.905163 40.993416 37.762905
26.657751 41.442497 38.710068
26.394463 41.510494 39.346066
26.696867 41.44305 40.373062
26.977602 41.189533 41.076397
26.75759 41.638954 38.942898
26.821932 41.729378 39.577087
26.940939 41.72237 40.11951
27.489153 25.913189 35.736164
27.856575 25.787968 36.72947
28.14845 26.11671 37.762897
28.146248 26.24357 43.40844
27.130905 26.622005 34.300354
27.21443 26.494427 34.578915
27.73863 26.70644 38.01678
27.2173 26.783987 40.136684
27.296318 26.69739 40.6737
27.743168 26.595146 43.374237
27.959433 26.708452 44.109295
27.643995 27.188824 34.34707
28.31723 27.567253 45.00267
28.3153 28.875463 28.796602
28.307762 28.767889 29.68079
28.290583 28.997786 30.13135
26.842487 28.611937 33.940216
27.575054 28.737385 44.451504
28.05546 28.56137 44.94924
28.343737 29.912294 28.229675
28.165552 29.538422 28.704622
27.960768 29.545158 29.646782
28.216953 29.347973 30.423616
27.697584 30.156572 33.086174
27.955688 29.532202 44.693657
28.285818 30.076061 28.21173
28.16266 30.374416 28.65541
28.009815 30.491318 29.25974
28.047894 30.629805 30.518984
27.738047 30.57213 31.83754
27.290842 30.336355 43.993603
28.315683 31.213934 28.622698
28.043842 31.193771 29.691126
27.987352 31.384815 30.229183
27.906086 31.49032 43.302906
27.899097 30.954592 43.85364
28.296091 32.578022 29.971058
27.359913 31.849741 42.507908
28.358158 32.847378 43.50797
27.492989 33.117596 31.910423
28.354313 33.44661 43.335106
27.700603 33.85357 32.06477
28.111069 34.74796 43.377758
27.577837 35.636063 33.1689
27.745699 36.365723 32.901604
27.68425 36.72372 43.369087
28.09281 37.239113 32.684677
27.545845 36.967087 43.25538
28.131165 37.972313 33.144962
27.228619 38.543377 33.88787
27.757435 38.192013 42.75347
27.700905 39.035988 34.272182
27.40609 39.061558 42.03436
28.44048 40.480625 31.098082
28.315704 40.72905 31.624807
27.192692 40.51768 37.22607
27.556152 40.59877 41.87851
28.370085 41.23868 31.040663
28.374866 41.43496 31.455002
28.379139 41.36359 32.107807
27.533545 41.12793 37.85068
27.714151 41.473858 41.546524
27.947718 41.28354 41.91394
27.534748 41.81584 38.91132
27.702938 41.953644 39.514507
27.83731 41.99969 40.458767
27.935701 41.818638 41.20757
29.335543 24.98771 28.871014
29.194271 24.855778 29.394842
29.330452 24.608051 30.055916
29.34428 24.656733 38.639477
29.360432 24.763105 38.807903
29.300777 25.389893 28.754177
29.10586 25.497179 29.486874
29.159595 25.573792 30.209396
28.279774 26.282393 35.22443
28.362225 25.848763 35.81039
28.144815 26.24089 37.606636
29.084812 26.048336 38.81667
29.30069 25.401823 39.06697
28.77678 26.430098 40.42086
28.814735 25.946745 43.50999
28.81343 26.118242 44.165268
29.226002 26.117418 28.865015
[...]
POINT_DATA 4095
SCALARS features_00 float 1
LOOKUP_TABLE default
0.5106164 0.64733607 0.74072844 0.4963734 0.60738844 0.718052 0.8056916 0.44340396 0.48929384 0.62205124 0.82182956 0.8898111 0.8934379 0.47139442 0.6811636 0.7955971 0.8538753 0.63587475 0.742754 0.81209177 0.42595795 0.47555053 0.5747318 0.69130135 0.74881554 0.78112674 0.34419006 0.42179364 0.47309458 0.79390776 0.8307471 0.41598636 0.89828557 0.37617594 0.3504339 0.3811262 0.4300903 0.83151454 0.82805556 0.4060512 0.35991365 0.3775282 0.45789984 0.5882305 0.7048706 0.7830654 0.79313815 0.36542907 0.38596448 0.48465145 0.67318577 0.72487646 0.2856991 0.37794834 0.68666625 0.7541928 0.7974283 0.24396716 0.8422842 0.3002228 0.84731615 0.39706168 0.3758283 0.7864532 0.35075563 0.3999727 0.4183596 0.7416681 0.7536827 0.39582998 0.40454918 0.33098257 0.26476356 0.3322438 0.36897296 0.67470646 0.36285996 0.34246692 0.31167758 0.78036445 0.70682865 0.6099223 0.81478226 0.7966541 0.7177176 0.60468614 0.6627772 0.68172187 0.6769824 0.7271052 0.72172487 0.6945735 0.5340785 0.32629508 0.6625045 0.6764288 0.6679883 0.64916253 0.6423671 0.5893431 0.3752464 0.254471 0.6535387 0.323404 0.16172205 0.40385276 0.5904078 0.032466978 0.6780101 0.7904228 0.18451566 0.82963395 0.22562648 0.8284204 0.30422744 0.65889627 0.739346 0.31884515 0.6303403 0.64753115 0.3009225 0.34900928 0.14841829 0.29760662 0.30307943 0.29705006 0.21928988 0.10888062 0.31047028 0.27898842 0.28177375 0.29300767 0.3322339 0.71588373 0.53479713 0.8147774 0.77843213 0.6658947 0.5260855 0.45881402 0.47392654 0.5781934 0.6232965 0.6257114 0.82050633 0.40579045 0.43467772 0.62045515 0.66279507 0.6546806 0.7456321 0.16751012 0.5086196 0.6435931 0.6009542 0.61574304 0.5711276 0.15052271 0.46155503 0.5611622 0.6129691 0.5542334 0.44526547 0.46808308 0.15174842 0.43502167 0.39632753 0.33285618 0.09217729 0.12090534 -0.02594389 -0.3539819 0.37678373 0.28691322 0.19003116 0.29383555 0.42493984 0.3036 0.27910194 0.22032793 0.0098847635 0.116529845 0.17223558 0.12313703 0.11902782 0.24100289 0.22953147 0.3285995 0.31450027 0.1521081 0.36390883 0.34240076 0.31613338 0.29277968 0.3138169 0.40088314 0.37361968 0.38725498 0.4684347 0.40794373 0.4612459 0.47859216 0.5047011 0.71647584 0.60128707 0.4350376 0.37740672 0.73975253 0.25983903 0.034710918 0.27562606 0.45554197 0.5179776 0.5622188 0.5067643 0.72519714 0.60228693 0.57162964 0.5010886 0.21012034 0.3999208 0.39803618 0.21663576 0.35751697 0.38101926 0.22598672 0.35198754 0.23776457 0.28920656 0.2605908 0.32270366 0.13259487 0.04417152 0.2920093 -0.037815962 0.03886156 -0.0019708835 0.03200513 0.08012736 0.1582937 0.34032387 0.15632544 0.380974 0.3449412 0.36625016 0.34648177 0.34543085 0.48234797 0.38412938 0.3922861 0.45896345 0.49444512 0.55502343 0.56442505 0.47713685 0.5260601 0.5624359 0.5443866 0.3514866 -0.006741196 0.45473987 0.6222614 0.6085539 -0.023166452 0.120248705 0.18966037 0.44946378 0.48892978 0.48455417 0.5329691 0.4457869 0.36890033 0.30422887 0.61051553 0.40541244 0.43575355 0.4793918 0.48731983 0.45148355 0.286384 0.08550073 0.32631555 0.4772293 0.46258032 0.44811064 0.28644088 0.12333833 0.27019227 0.4185292 0.3984518 0.32760832 0.054398935 0.142766 0.23312873 -0.032591674 0.046779625 0.17566974 0.07024488 0.03734818 0.042147752 -0.025903463 0.05020102 0.21368127 0.039227024 0.21338834 0.08934991 0.32112542 0.20633197 0.3729932 0.22399361 0.5966493 0.6500559 0.33608928 0.4963853 0.69194126 0.731483 0.7521558 0.3829426 0.61089826 0.5988008 0.48843712 0.554126 0.6371677 0.6554891 0.53727055 0.55915165 0.54632545 0.22098485 0.1899727 0.5054518 0.53104794 0.52497977 0.45153543 0.39624676 0.052662797 -0.16077505 0.0008734609 -0.082620196 0.46730837 0.53397965 0.4435345 0.42317152 0.36553025 0.28584078 -0.17020547 0.06724406 0.5475108 0.59552777 0.2918828 0.2911337 0.14399266 0.38053435 0.5713197 0.38454646 0.39711097 0.12991425 0.5244742 0.51965016 0.45544034 0.08263963 -0.112718344 -0.19339044 0.4005118 0.46489394 0.43134886 0.43336254 0.4245936 0.37262136 0.33990464 0.26847 0.13985494 0.21944399 0.25968298 0.1887635 0.10930349 0.122939005 0.1970101 0.25963828 0.13316719 0.019879483 -0.06398919 0.105397806 -0.035641916 0.24051195 0.24585852 0.01903394 0.23927394 0.25335613 0.16012123 0.08251767 0.23101899 0.4009198 0.6434207 0.6093844 0.5853286 0.54647803 0.24427284 0.5304849 0.69377446 0.6986531 0.7136721 0.7436608 0.753891 0.72638345 0.34086174 0.49226427 0.65343106 0.7715695 0.77505517 0.7727239 0.52032495 0.60510695 0.67563856 0.6921494 0.6940656 0.5028401 0.4744339 0.4597287 0.3450466 0.31581128 0.45759284 0.40174043 0.34981024 0.5108351 0.53434765 0.5387249 0.5086676 0.1337175 0.30232847 0.27704695 0.26045322 0.45142156 0.45692468 0.27603287 0.043590948 -0.07709015 0.042514704 0.33758312 0.47051626 0.54181695 0.3449551 0.31911397 0.28314075 0.21731524 0.24340859 0.6177516 0.21538052 0.31583333 0.05345299 0.12792167 0.6341101 0.6148548 0.28581163 0.30680585 -0.10269391 -0.34990555 0.5903594 0.35229152 0.39415586 -0.17134513 -0.30511 0.46441567 0.40499634 0.20736921 0.4099862 0.24639904 0.32107776 0.2363734 0.33225906 0.01790944 0.098162785 0.2389721 -0.17925023 0.22560805 0.06500968 0.25220644 0.24199717 0.16051939 0.22744854 0.51383746 0.666029 0.3687438 -0.00877703 -0.022714065 0.5637119 0.7121159 0.7243612 0.61095047 0.6772932 0.72339845 0.7608231 0.81341326 0.81662107 0.7853216 0.6972281 0.59943473 0.6146405 0.65193117 0.7129542 0.5775826 0.63133603 0.61164355 0.5785428 0.653337 0.6500077 0.62709284 0.5126787 0.5667193 0.46693453 0.28515002 0.5501914 0.5375574 0.44174054 0.45902598 0.6584314 0.6247381 0.53083336 0.67390007 0.6794186 0.66099703 0.59689224 0.6410772 0.62656665 0.25515977 0.5031005 0.39565903 0.35483593 0.2941411 0.12578174 0.29004973 0.38851964 0.49754184 0.4969126 0.42103928 0.5018065 0.11289325 -0.08108529 0.10544238 0.16998078 0.21607596 -0.025363766 0.026075583 0.13187645 0.3674627 0.60305524 0.14212361 0.57188845 0.63794434 0.1959584 0.17917565 0.24008748 0.35266665 0.37587106 0.28634816 0.23877808 0.33661044 0.044529054 0.31190094 0.06575741 0.31570688 -0.23629063 0.45573008 0.3747225 0.18794534 0.2489967 0.5228332 0.48757046 0.36215103 0.04451169 0.14123185 0.24673082 0.5692236 0.5553638 0.38066798 0.24025515 -0.053714186 -0.05174111 0.26549044 0.68040174 0.10878642 0.01534551 0.705894 0.71712 0.48400438 0.54862666 0.5687067 0.5750381 0.6527122 0.7250526 0.74219644 0.74136007 0.73023885 0.6170696 0.46000284 0.5794129 0.60080004 0.617373 0.66279596 0.6998404 0.7439909 0.7531383 0.6049301 0.6757546 0.7226063 0.7396631 0.5082738 0.65763426 0.7170136 0.7309861 0.45707184 0.42965025 0.64744467 0.69053364 0.7160538 0.5502044 0.50509864 0.50785357 0.39449495 0.3329836 0.6023514 0.65446466 0.69531345 0.61129534 0.46664906 0.23959692 0.47592908 0.514741 0.6100952 0.2248164 0.53820854 0.58714116 0.5213778 0.28055707 0.13770136 0.48356342 0.34412804 0.33787686 0.19177628 0.3919755 0.56725883 0.30282223 0.2904301 0.44740146 0.3393252 0.5627603 0.60854 0.1600023 0.15221915 0.5735362 0.5776128 0.52337694 0.49471903 0.09158531 0.25697005 0.17820063 0.09787441 0.46426934 0.42916057 0.45283824 0.3774108 0.14709243 -0.019576376 -0.0100561865 0.08122608 0.33857766 0.3652089 0.3715641 0.32440907 -0.1251066 -0.027323961 0.10324071 0.22654083 -0.07439911 0.10494207 0.17317286 0.46184468 0.093755595 0.14164634 0.32984126 0.17199053 0.44524723 0.20750478 0.07164426 0.14399867 0.4287686 0.49474597 0.3307105 0.3357737 0.31906584 0.3485231 0.33331987 0.24865866 -0.14513177 0.24930781 0.31538534 0.25903046 -0.19035366 -0.26171827 0.46104586 0.48999327 0.46102476 0.25647372 0.22177109 0.09013096 0.1165548 -0.39361343 0.38521087 0.49410155 0.4835716 0.4526542 0.41528073 0.2374785 0.043120883 0.13294402 0.2362065 0.42259794 0.47140715 0.50941324 0.5154172 -0.28971478 0.19686277 0.33117184 0.5421101 0.5643159 -0.19651523 -0.18460445 0.19540685 0.501171 -0.039896265 0.32758626 0.65182626 0.13327992 0.48822683 0.7088655 0.56977487 0.5020699 0.3595186 0.31247056 0.2359567 0.5244752 0.6881329 0.5474345 0.50115967 0.43973774 0.72669494 0.77473634 0.64276373 0.7095853 0.7698573 0.75828236 0.5193786 0.522099 0.7437233 0.7319188 0.37788606 0.36612302 0.32901067 0.72127026 0.71583474 0.38892862 0.38935503 0.36781758 0.70758927 0.4835388 0.432167 0.11736263 0.69212663 0.70563805 0.17708611 0.58335423 0.66051954 0.5045112 0.07002933 -0.0947895 0.41708454 0.46369326 0.4726029 0.034375273 0.44675606 0.47615102 0.3481952 0.15901735 0.07001285 0.19561213 0.16884759 0.53508997 0.26947585 0.18738274 0.19630775 0.5010741 0.18592152 0.19287719 0.25147876 0.461326 0.46853817 0.49300662 0.32194367 0.13731593 0.23743913 0.41356272 0.40756053 0.3913007 0.26041013 0.18849921 0.18412527 0.26442206 0.20313196 0.2188766 0.17577885 0.3354368 0.41829205 0.3760586 -0.31052646 0.048710637 0.33157223 0.40761444 0.37467393 -0.17097865 0.2772439 -0.037625864 0.02077362 0.6254698 0.64370084 0.66852367 0.67982733 0.67148554 0.06305697 -0.37747437 0.28207153 0.4379508 0.564183 0.6151972 0.6199713 0.0712739 0.1912044 0.55408204 0.5697391 0.3011483 0.52215034 0.53706765 0.23423354 0.119057864 0.4975952 0.5230023 0.28674772 0.30798456 0.31227055 0.15555461 0.32638267 0.35503298 0.35416362 0.3632198 0.3331794 0.44315067 0.43986377 0.28873402 0.4599397 0.46015584 0.45774582 0.47807783 -0.38967746 0.37961444 0.38699436 0.48541173 -0.0098269135 -0.2391594 -0.06538373 0.32972905 0.3477661 0.35441267 0.42556578 0.4217556 0.029700935 0.039830945 0.09175384 -0.013278455 0.300739 0.38773555 0.43427828 0.35999957 0.14354189 0.07465533 0.066714466 0.018626206 0.4444554 0.45257327 0.64649534 0.51082474 0.32548696 0.31031874 0.2272399 0.16337526 0.67800665 0.7104345 0.7231387 0.7711793 0.544819 0.5463505 0.7562281 0.74304163 0.45447546 0.73473877 0.7239455 0.5036208 0.4263218 0.33482343 0.3221166 0.6871395 0.5027838 0.15181999 -0.061678693 0.12521584 0.6846036 0.5365587 0.6614853 0.51470125 0.5112891 0.43424037 0.32597414 0.43324932 0.4143002 -0.09576878 0.4190912 0.37880057 0.32954276 0.044168837 -0.0059069917 0.31180674 -0.034144387 0.16920304 0.20974867 0.21720245 0.23883969 0.4115943 0.26102537 0.2917643 0.28698608 0.40439212 0.25889748 0.20441967 0.33022928 0.3703745 0.10343995 0.11321102 0.121423565 0.31894886 0.42995292 0.44760054 0.45540124 0.3187465 0.016204447 0.4250242 -0.12971692 -0.072952114 0.4903053 0.53951854 0.5672791 0.6389215 -0.0083832 -0.33644533 0.49168754 0.66955143 0.67056906 -0.0041077826 0.11854367 0.63628817 0.64516044 -0.027127812 0.56928897 0.590279 -0.11177991 0.54384625 0.60181797 0.51598763 0.38446453 0.20597056 0.2091862 0.48729858 0.68902063 0.6538232 0.5791445 0.35519886 0.218289 0.7075541 0.6683533 0.6154038 0.41437897 0.410405 0.33146808 0.13206154 0.41863084 0.08791837 0.0645977 0.41241947 0.31957433 0.37088388 0.37446102 0.33192757 0.38131922 0.36287367 0.35714334 0.018427335 0.12844421 0.44720095 0.34902176 0.35533383 0.32264408 0.2605622 -0.09872465 0.16167688 0.004930268 0.020787276 0.02340354 0.14126769 0.14143774 0.12829603 0.39139593 0.4263424 0.48459756 0.47541326 0.4709425 0.6228801 0.6792354 0.67382324 0.6872706 0.55155754 0.60171664 0.681051 0.68400264 0.5079329 0.40693516 0.34007996 0.4960246 0.68000424 0.6186625 0.5228211 0.64237356 0.6585691 0.6543269 0.6047431 0.64330006 0.6123205 0.49050507 0.59592795 0.40053642 0.5119419 0.17367674 0.43993735 0.42651123 0.34038916 -0.1045988 0.08554759 -0.04782948 -0.067781284 -0.046370044 0.1378945 0.2036615 0.22272497 0.2682471 0.31014985 0.2964879 0.2965023 0.30965966 0.28686118 0.16657194 0.14833297 0.18688124 0.052843448 0.4003018 0.47095582 0.47298855 0.47044873 0.24399939 0.09544879 0.02920102 0.041429643 0.06795204 0.18631199 0.2050955 0.044429813 -0.3900401 -0.20990223 -0.08964555 0.4788368 0.53628904 0.56198 -0.03528568 0.20068805 0.64354515 0.6469865 -0.025041267 0.64864886 -0.06484319 0.6059661 0.5037954 0.3540028 0.27945215 0.078195944 0.069595516 0.007559344 -0.29596105 0.514487 0.5507777 0.684276 0.6527065 0.6055009 0.4869882 0.2390335 0.09626074 0.056842897 0.47490332 0.72853434 0.71217275 0.71878684 0.7043961 0.67396665 0.36618432 0.6622187 0.6100386 0.57458586 0.1796368 0.39094394 -0.050599176 0.030744076 0.3995181 0.3399042 0.3589576 0.11860126 0.33630306 0.0045591965 -0.10786241 0.092367396 0.112597 0.4364965 0.31482768 0.3004961 0.2912268 0.17741333 0.06607978 -0.1999421 0.109183304 0.16611883 0.47648448 0.47430325 0.2746813 0.30173668 0.39120984 0.45845294 0.4720776 0.6009859 0.5953714 0.61880875 0.6465938 0.5466271 0.5843152 0.5643368 0.6019949 0.5622717 0.52723795 0.48920786 0.54485005 0.7373861 0.6744454 0.7474046 0.7828979 0.7559594 0.7393307 0.13902579 0.6680753 0.55338734 0.5543233 0.5033028 0.48674953 -0.10125823 -0.16016829 0.09072572 0.15431485 0.3235274 0.35198003 0.35242158 0.3626929 0.3525612 0.30667827 0.051929303 0.25838026 0.5067215 0.1214872 0.44624728 0.48851293 0.51055586 0.48960608 0.4514979 0.34048307 0.29635727 0.4603539 0.39944923 0.6313913 0.43598104 -0.052084513 -0.34558904 0.4303772 0.5797873 0.42891562 0.41921642 0.34343863 0.34975812 0.3621605 0.29424512 0.57753396 -0.18010336 -0.10446768 0.6165811 0.27739224 0.19557013 -0.028541282 -0.11307107 0.5720147 0.48369467 0.40815198 0.4818833 0.6505561 0.6082839 0.12892719 0.37813294 0.7232289 0.70270216 0.66037154 0.6229682 0.35971794 0.22468936 0.36705285 0.057684064 0.35676065 0.3671016 0.37971586 -0.022124387 0.33803973 0.32370242 0.2142018 0.37384483 0.31314138 0.26860523 0.1292429 -0.10402143 0.04482635 0.025812972 0.105654985 0.17782561 0.21239018 0.20660867 0.22360152 0.21629064 -0.027218457 0.006856708 0.11014152 0.40328035 0.41381544 0.38708696 0.41964895 0.43235427 0.44829598 0.43061662 0.4003759 0.495889 0.47685188 0.58684427 0.58704424 0.56209505 0.6153158 0.5733105 0.54586256 0.4929875 0.5091293 0.5509596 0.5189223 0.5086535 0.48588282 0.3522115 0.7678344 0.6251282 0.6015595 0.8088644 0.8165411 0.8336117 0.8132229 0.2273195 0.51610357 0.70877963 0.64764214 0.42594108 0.17047341 0.62969697 0.5642813 0.5459039 0.5129523 0.4481765 0.009943046 0.39962247 0.60828054 0.09591007 0.04082987 0.15326087 0.06889526 -0.025417661 0.034618862 0.41782078 -0.10447854 0.41956446 0.3914134 0.3366284 0.19114259 0.31759548 0.2922123 0.5180829 0.51621616 0.36690474 0.24910104 0.49854773 0.5096475 0.5100889 0.5004015 0.70543814 0.72940433 0.40020984 0.23774052 0.65213466 0.707255 0.71176565 0.4300977 0.051531434 0.6435743 0.6380322 0.42001253 0.4227909 0.41108653 0.32361192 0.45875823 0.52952534 0.114438355 0.12069995 0.019585758 0.4660166 0.17792152 0.17784403 -0.008199722 0.29468358 0.2830724 0.57726544 0.459567 0.089784175 0.6867546 -0.018944003 0.6234149 0.5954666 0.4631381 0.22756562 0.15148765 0.21278837 0.30617356 0.34351116 0.20660989 -0.28252417 0.3323868 0.12742129 -0.25954905 0.26772386 0.2674106 0.03385432 -0.09273328 0.27746984 0.11737232 0.23777682 0.15864146 0.39239332 0.31235737 0.10151297 0.20028986 -0.0068705976 0.12852216 0.06697607 0.2503212 0.36878902 0.17058007 0.24374603 0.27220201 0.1709912 0.11633563 0.040250313 0.06995357 0.114247166 0.34216434 0.27040192 0.12503701 0.43732223 0.4593957 0.42806298 0.3462432 0.4315895 0.49146345 0.47904107 0.52749926 0.49804178 0.5370357 0.5281305 0.5161148 0.48453403 0.35181123 0.39871877 0.4001128 0.69921356 0.5667422 0.2711385 0.26090354 0.4435392 0.5460702 0.80733263 0.7381321 0.54936653 0.85177624 0.5944021 0.581929 0.8373791 0.7931894 0.51456046 0.69102186 0.71396303 0.65415543 0.5570435 0.6965763 0.6725967 -0.034258753 0.62040114 0.007511154 -0.097952336 0.16894498 0.38048244 0.42661172 0.3934911 0.35445142 0.3393682 0.08667542 0.32350385 0.30982625 0.30257607 0.29363653 0.517104 0.51351714 0.30410212 0.4970414 0.51004136 0.4982347 0.47232294 0.5393738 0.6867825 0.735369 0.7438133 0.40033627 0.23746373 0.35856116 0.47175473 0.73322123 0.39971423 -0.15164587 -0.0631088 0.670732 0.58764493 0.36808226 0.030584604 0.4692148 0.395127 0.09849152 0.06601166 0.37372798 0.13280152 0.12285485 0.3200123 -0.015801772 0.15452272 0.22268957 0.26044515 -0.00488922 0.23779841 0.27460927 0.27055386 0.24629986 0.28976035 0.3402429 -0.00266999 0.34535998 0.39724517 0.35895061 0.03939323 0.49546647 0.41656935 0.33152893 0.27707893 0.13342544 0.4944722 0.45599023 0.42521036 0.26222867 0.2313374 0.19115591 0.5028479 0.45559865 0.12368605 0.10449043 0.15527199 0.07993473 0.13982296 0.2061722 0.18384935 0.22977895 0.2629512 0.22018918 0.0037455484 -0.035663072 0.2315192 -0.044300236 0.16025004 0.37366736 0.3144396 0.27260393 0.4087543 0.4590226 0.44758895 0.43155873 0.38691974 0.41555429 0.40286788 0.4284417 0.5386613 0.66810715 0.61445487 0.56544733 0.5339944 0.16944037 0.2119151 0.17249678 0.43242708 0.5452491 0.787958 0.70082086 0.6600367 0.5927712 0.49560243 0.33944875 0.06818872 0.5668118 0.57228154 0.8153014 0.7694646 0.7058438 0.5490244 0.4365356 0.41171566 0.576381 0.59456086 0.80964243 0.73625135 0.56959635 0.37972075 0.6805674 0.7105342 0.7135059 0.71684504 0.250466 0.07768816 0.40578428 -0.052688062 -0.03947155 0.06472488 0.0040973276 0.33105052 0.32213062 0.05740595 0.21283244 0.2734006 0.27438185 0.30818424 0.23313823 0.27830526 0.48118597 0.47451654 0.6479447 0.72535396 0.17573863 0.23026042 0.46275818 0.43916404 0.39203602 0.38820642 0.333461 0.44525415 0.55226266 0.7055276 0.7161083 0.38207114 0.15668294 0.33246338 0.6169437 0.57818127 0.30815375 0.21676327 0.545878 0.46647722 -0.07440905 -0.034274384 0.41852137 0.107231885 0.10222083 -0.23535919 0.41709965 0.09236572 0.379853 0.08623496 0.28480366 0.28595054 0.18527721 0.13082688 0.05619779 0.11889176 0.036588743 -0.08845943 0.2460759 0.2632547 0.27217308 0.094209105 0.33637026 0.09800702 0.4487095 0.5464667 0.5278404 0.37162876 0.2578099 -0.1416596 0.04523708 0.5667176 0.5492482 0.49540395 0.15780507 0.11894067 0.076972246 0.061155092 -0.023184687 0.12431741 0.08714415 0.14246295 0.14552274 0.033299558 0.0688019 0.3329769 0.26226586 0.28026575 0.3921798 0.3938886 0.37408918 0.3887123 0.41093838 0.35673806 0.32538098 0.38063174 0.37783718 0.40716732 0.43352562 0.4574948 0.47984642 0.4272975 0.51178944 0.2737101 0.26876253 0.39315033 0.48161882 0.5445505 0.5599853 0.3384198 0.3211853 0.5599655 0.59834397 0.38288096 0.57923985 0.6525881 0.49500984 0.67367107 0.42939752 0.6737176 0.35315466 0.4802351 0.309337 0.32497177 0.37731203 0.20849115 0.18473038 0.033428177 0.32848 -0.027082153 0.02320017 0.14341182 0.4096759 0.3990178 -0.10574508 0.010114465 0.13370435 0.32951882 0.39025155 0.53940725 0.6081703 0.65677595 0.37073848 -0.038369916 0.05598541 0.084929526 0.09854353 0.3079417 0.2396794 0.26020408 0.37869608 0.41748405 0.53688323 0.5773833 0.5219675 0.061610594 0.03944731 0.47317308 0.4930165 0.4772901 0.34532017 0.073253125 -0.07605432 -0.18143211 0.4601311 0.44804645 -0.15876523 -0.17247754 0.42433953 0.43260217 0.14767852 0.3887987 0.39850035 0.06921258 0.32715362 -0.04519929 0.24672404 -0.099818856 0.15154815 0.12943114 0.05222217 -0.06992455 0.31109586 0.2370649 -0.00031965598 0.2056356 0.055514153 0.2508921 0.35128602 0.36142576 0.104513 0.37736362 0.43937194 0.16868071 0.53133273 0.5745245 0.5984148 0.588346 0.5103935 0.33557197 0.10226844 0.079839095 0.029334355 0.011033535 0.18312481 0.44137627 0.019765433 0.07221814 0.053399004 0.14045556 0.012399778 0.26758146 0.1851157 0.30403885 0.24912085 0.3034014 0.31743094 0.41215873 0.3830577 0.32495454 0.2945074 0.29335025 0.46462184 0.43657875 0.48300534 0.49260688 0.48795748 0.43176958 0.5093354 0.39175132 0.4567172 0.35810125 0.34152365 0.33598584 0.34116185 0.41313717 0.5139235 0.54014814 0.3843519 0.36839285 0.32643652 0.3343137 0.3901301 0.51505446 0.45191061 0.28666377 0.29638097 0.3860863 0.52638435 0.60176545 0.47254938 0.4928214 0.3553989 0.44276252 0.4292398 0.4420392 0.32146138 0.43179554 0.36107856 0.3717587 0.3207582 0.27101195 0.32586598 0.232018 0.15458958 0.26332206 0.11176666 0.039617196 -0.18404572 0.38482633 0.3823307 0.019546583 -0.0494323 0.016023591 -0.04120195 0.38242742 0.15356597 0.08280138 -0.18359132 -0.02365654 -0.08707422 0.7127