# vtk DataFile Version 2.0
Really cool data
ASCII
DATASET POLYDATA
POINTS 6249 float
-33.540684 -30.49041 -2.7534742
-32.797634 -31.770315 -3.1531084
-32.876774 -31.71278 -2.5432224
-32.768063 -31.765823 -2.1391606
-32.81786 -30.958767 -4.200986
-33.10806 -31.222822 -3.3454185
-33.19655 -31.269266 -2.477513
-32.98337 -31.184265 -1.8052784
-32.604465 -30.229132 -4.820571
-33.08484 -30.4488 -4.066997
-33.379265 -30.365273 -3.3027744
-33.409355 -30.590988 -2.4541583
-33.125965 -30.56945 -1.7582786
-32.78282 -30.602745 -1.3987255
-33.05996 -29.670357 -4.027584
-33.259323 -29.632004 -3.4440365
-33.270245 -29.657898 -2.6365874
-33.035366 -29.779959 -1.9376954
-32.80005 -29.082745 -4.0898423
-32.92949 -29.07123 -3.2581017
-33.042324 -29.192228 -2.7538636
-31.721952 -31.786438 -5.07923
-32.01065 -31.978155 -4.3056264
-32.164135 -32.192062 -3.3411903
-32.41575 -32.055695 -2.4958873
-32.34021 -31.748905 -1.8501067
-32.045635 -31.273506 -5.094532
-32.41743 -31.479225 -4.5063124
-32.49645 -31.382072 -1.5525936
-32.332363 -31.065245 -1.3320681
-32.12538 -30.358288 -5.4300675
-32.45375 -30.452208 -1.3045282
-31.757133 -29.778439 -5.8059015
-32.04201 -29.578001 -5.4823394
-32.53531 -29.347168 -4.612091
-32.584816 -29.716293 -1.6512994
-31.782156 -28.62734 -5.2263246
-32.01922 -28.43245 -4.5528183
-32.658833 -29.023054 -2.5153685
-32.548687 -29.154913 -2.1585798
-31.660557 -27.515284 -5.388753
-31.809622 -27.38022 -4.435751
-31.851215 -28.038155 -3.9856799
-31.604809 -26.80518 -4.855991
-31.618383 -26.328169 -3.6298158
-31.538944 -25.552988 -4.404907
-31.62703 -25.66441 -3.6808488
-31.626215 -25.94542 -2.9513712
-31.379587 -32.701298 -3.216108
-31.230791 -32.721443 -2.578176
-30.961966 -31.828953 -5.83198
-31.32498 -31.974684 -5.2884426
-31.154362 -32.444336 -4.595519
-31.616812 -32.487316 -2.4903386
-31.212048 -32.347786 -1.9108976
-31.080647 -31.44628 -6.090014
-31.427227 -31.723341 -1.4692454
-31.510721 -31.248571 -1.3663568
-31.182917 -30.707521 -6.2502913
-31.655865 -30.58415 -1.2800549
-31.200445 -29.731392 -6.260739
-31.413956 -28.71941 -6.008684
-30.696505 -28.05031 -0.15754749
-31.23803 -27.364037 -5.859683
-31.530142 -27.52112 -5.5573835
-31.523472 -27.404205 -1.8310623
-30.827318 -27.65794 -0.27321643
-30.779213 -27.584442 -0.14842597
-30.955042 -26.773867 -5.923179
-31.40677 -26.827085 -5.4264646
-31.14722 -26.549778 -1.5432405
-31.177494 -25.569353 -5.2290497
-31.4787 -25.235754 -4.428073
-31.445807 -25.539814 -2.718553
-31.319227 -25.929207 -2.0194266
-31.091278 -24.77712 -5.0734706
-31.311888 -24.691196 -4.35056
-31.44178 -24.912344 -3.6199396
-31.108524 -24.88746 -2.7165606
-30.97784 -24.115948 -4.386197
-30.707153 -23.797892 -3.8808453
-30.513422 -32.907333 -3.4443605
-30.627272 -32.931774 -2.6562128
-30.3131 -32.016205 -5.9455934
-30.723816 -32.26516 -5.3258705
-30.667892 -32.49921 -4.747492
-30.533363 -32.38305 -1.8743769
-30.80692 -31.155045 -1.4156824
-30.261166 -30.426338 -6.787738
-29.873192 -29.99967 -7.125305
-30.684834 -29.246243 -6.5470033
-30.5853 -28.997648 -0.89322245
-29.973665 -28.956224 -0.040784568
-30.190985 -28.302563 -6.626374
-30.284035 -28.432789 0.05848998
-30.451923 -27.634207 0.20196563
-30.211054 -26.615854 0.3874606
-30.15591 -25.490108 -5.915533
-30.073977 -25.692688 -0.71654993
-30.166903 -26.159767 -0.16114788
-29.714716 -26.069654 1.1345199
-30.239403 -24.734642 -5.757884
-30.629951 -24.871063 -5.594161
-30.477972 -24.399176 -2.334325
-29.967957 -24.773352 -1.6855577
-30.404976 -23.849504 -4.971523
-30.389782 -23.634384 -4.472209
-30.43057 -23.661072 -3.6321266
-30.456537 -24.079382 -2.599124
-29.93075 -23.377453 -3.708255
-29.65364 -21.076038 2.398129
-29.90394 -20.375874 1.9693282
-29.95474 -20.459293 2.4765415
-29.841843 -20.414663 3.2331927
-29.616636 -20.228834 3.728491
-29.775015 -19.207901 1.5276039
-29.980896 -19.524668 2.509575
-29.803608 -19.481062 3.429919
-29.69215 -19.62264 3.831192
-29.6107 -18.659876 0.7571964
-29.72702 -18.67496 1.5783296
-29.744915 -18.807285 2.7948728
-29.68657 -18.908558 3.3003302
-30.034685 -32.570316 -4.5917244
-29.503199 -32.19382 -5.680769
-29.51179 -32.502556 -2.431578
-30.12541 -32.029404 -1.6787715
-29.196743 -31.411266 -7.263412
-29.837843 -31.446962 -1.7670939
-28.93548 -30.12761 -7.8686986
-29.448647 -30.298557 -7.5247083
-29.280268 -30.130413 -1.4554574
-29.556406 -29.769455 -7.412669
-29.0666 -28.927471 0.40412793
-29.052176 -28.799095 -7.722907
-28.844921 -28.458012 -7.657682
-29.398138 -28.1726 0.86221784
-28.706078 -27.911795 -7.8889146
-29.477608 -27.800583 -6.70584
-29.382051 -26.89639 1.6058682
-28.962246 -27.154943 2.0952988
-29.483042 -26.224785 -6.42005
-29.473757 -26.086002 1.5781772
-29.042934 -26.391218 2.3920045
-28.592108 -25.911425 3.4557369
-29.123522 -25.594444 -6.3092637
-29.070772 -25.568481 2.2324188
-28.594625 -25.605253 3.3809643
-29.329065 -24.504232 -6.380156
-29.040474 -24.954815 -0.08114697
-29.368881 -25.243143 0.46293852
-28.614056 -24.807875 2.7299364
-29.119326 -23.765738 -6.136175
-29.386885 -23.66886 -2.61117
-29.542559 -24.070005 -2.1059012
-28.975807 -22.973959 -4.8280816
-29.638504 -23.28522 -3.6729064
-29.11285 -23.414116 -3.1282167
-28.689903 -22.095215 3.6731403
-28.955395 -20.764507 1.208677
-28.92485 -21.089792 1.515526
-29.343779 -21.24943 3.2899463
-29.394745 -20.841452 3.8695407
-29.288475 -20.367619 1.2030027
-29.29853 -20.301065 4.1355753
-29.455078 -19.215183 0.47967827
-29.257547 -19.456944 4.1924343
-29.014341 -18.46418 -0.15240929
-29.4142 -18.44719 0.37330383
-29.482374 -18.48185 2.7749686
-29.33894 -18.546137 3.4158955
-29.278568 -18.864029 3.9003704
-28.99885 -17.994041 0.027874142
-29.212385 -17.767815 0.7584269
-29.346195 -17.892872 1.5272607
-29.194876 -18.07649 2.4497747
-29.224327 -18.3548 3.3612657
-28.854593 -17.375614 0.7336031
-27.664095 -34.9476 -9.27809
-27.70976 -35.070843 -8.448725
-27.614407 -34.302246 -9.748106
-27.757154 -34.379234 -9.3776455
-27.811905 -34.649082 -8.565999
-27.725536 -34.39244 -7.913447
-27.778662 -33.876335 -9.3024645
-27.745342 -33.710598 -8.8133545
-27.630564 -33.608997 -7.464929
-28.485825 -31.662344 -7.72274
-28.56632 -30.93241 -2.211876
-28.34591 -30.310705 -8.211276
-27.814234 -29.275246 -9.070195
-28.621664 -29.402058 -8.283147
-28.466894 -29.318867 -0.33886486
-28.539469 -29.125868 0.31358355
-28.474762 -28.75454 0.99351144
-28.024729 -28.449718 -8.866456
-28.382906 -28.165016 -8.244268
-28.083143 -28.084068 2.226375
-28.115578 -27.891247 -8.708618
-28.388111 -27.548344 -8.158976
-28.510714 -27.54976 2.2797031
-28.102264 -27.113722 3.2342803
-27.751457 -26.999619 -8.839393
-27.939781 -26.55689 -8.465814
-28.336308 -26.33969 3.5436132
-27.882763 -26.246511 4.3423204
-28.065605 -26.05094 -8.007829
-28.385916 -25.370207 4.130756
-27.704723 -25.478992 5.052755
-28.217962 -24.161587 -7.157805
-28.202915 -24.519913 -0.41336465
-28.488989 -24.47618 0.46422768
-28.45947 -24.628922 3.529141
-28.208439 -24.85996 3.90248
-27.83186 -24.88707 4.8836594
-27.694319 -24.16937 9.931083
-27.78739 -24.110619 10.643922
-27.780773 -24.013624 11.032279
-27.760248 -23.365736 -8.09874
-28.012272 -23.500214 -7.447784
-28.163485 -23.58893 1.8184857
-28.384247 -23.640507 3.1398535
-27.685 -23.297249 8.99934
-27.726368 -23.520325 9.571855
-27.915731 -23.472427 10.630236
-27.810188 -23.49971 11.126068
-27.731184 -22.96691 -8.126463
-27.737415 -22.454895 -7.787628
-28.002455 -22.814827 -6.693398
-28.558134 -22.888802 -5.748601
-28.468176 -22.76146 -5.0078335
-28.594007 -23.189112 -3.6554391
-28.619984 -21.808773 2.0985534
-28.577532 -21.810003 2.3687925
-28.212835 -22.026934 4.2557306
-27.681122 -21.89601 6.1249075
-27.59855 -22.581974 8.021018
-27.826931 -22.537958 9.531069
-27.869362 -22.832018 10.458213
-27.782547 -22.99924 11.10118
-28.536648 -21.498192 1.8685842
-28.401407 -21.101236 4.6018124
-28.220068 -21.256031 5.164183
-27.83218 -21.566378 6.3159556
-27.710896 -21.582335 8.272987
-27.6359 -21.702732 9.177329
-28.25403 -20.194263 0.032826215
-28.266722 -20.561386 0.54058045
-28.129427 -20.6831 5.7857075
-27.721695 -20.565434 6.8412433
-27.669807 -20.61837 7.1225924
-27.692467 -21.098658 7.9132495
-28.039831 -19.052382 -1.0441446
-28.288017 -19.030087 -0.5644522
-28.359243 -19.392797 5.0598087
-28.683752 -18.249386 -0.42296904
-28.494461 -18.525652 4.301777
-28.08359 -18.753996 4.90901
-28.07616 -17.802694 -0.73794436
-28.201271 -17.654 -0.38520962
-27.94883 -17.606062 2.409514
-28.417496 -17.969082 3.1704557
-28.228415 -18.19015 4.124395
-28.08184 -17.23575 -0.1823887
-28.231634 -17.268202 1.7702225
-27.034908 -35.685196 -9.044584
-27.194857 -35.866917 -8.563097
-27.054312 -36.03113 -7.5958524
-26.959126 -35.874775 -7.0777993
-27.177563 -34.946064 -9.879005
-27.287275 -35.315987 -9.382498
-27.391384 -35.5914 -8.232496
-27.297039 -35.607166 -7.487255
-27.014858 -35.43 -6.8681126
-27.323483 -34.460064 -9.937629
-26.930115 -34.712135 -6.412796
-26.702862 -33.97929 -4.0066514
-26.734938 -34.184055 -3.4552517
-26.899097 -33.78782 -2.6788602
-27.196762 -33.768097 -9.999064
-27.528343 -33.68779 -9.641471
-26.985683 -33.584923 -6.474123
-27.179007 -32.994125 -4.429722
-27.377796 -33.259747 -2.9134274
-26.845604 -32.925255 -2.1091692
-26.769863 -32.926327 -9.909555
-26.930399 -32.90367 -9.486052
-26.82194 -32.385044 -1.8715942
-27.05021 -31.119959 -8.852252
-26.832644 -30.492706 -9.436709
-27.531916 -29.689365 -0.42569876
-27.408823 -29.662344 0.12863824
-27.205288 -29.532946 -9.316226
-27.705803 -29.347748 0.507923
-27.458857 -28.944925 1.2555342
-27.282274 -28.347584 -9.244114
-27.357965 -28.177126 2.3154972
-27.704353 -27.71261 3.195923
-27.68311 -27.295195 -8.952942
-27.258202 -27.032846 4.034203
-27.367373 -26.57966 -8.956476
-27.340687 -26.156988 4.907963
-27.348335 -26.137672 -8.735056
-27.452492 -25.840034 -8.467111
-27.512602 -25.354284 5.1044436
-27.122618 -24.879942 9.723059
-27.115383 -24.913185 10.620369
-26.994633 -24.9197 11.309761
-27.10345 -24.060896 -8.82318
-27.595694 -24.088644 -8.229381
-27.306038 -24.161686 8.801466
[...]
POINT_DATA 6249
SCALARS features_00 float 1
LOOKUP_TABLE default
0.8369311 0.7218735 0.7632375 0.7603196 0.63540375 0.76182806 0.81712663 0.8119178 0.49946582 0.6383255 0.76910055 0.8530306 0.84699154 0.8098069 0.552003 0.66367555 0.77116156 0.81127465 0.43699533 0.5868255 0.68878156 0.5015079 0.5622933 0.6443099 0.7141093 0.7319969 0.52152014 0.5830679 0.75580466 0.7397936 0.4606932 0.76084596 0.34274215 0.34109968 0.38318875 0.7545923 0.25729167 0.26616126 0.6255028 0.654528 0.22699669 0.22527194 0.24099833 0.25899753 0.32971054 0.38761044 0.39685374 0.3833062 0.6275134 0.6719476 0.44986886 0.4706723 0.48729008 0.68034685 0.663566 0.45910946 0.6460886 0.6225131 0.41568008 0.5934516 0.28329107 0.2371595 0.30439752 0.21753949 0.22354126 0.18387406 0.30873594 0.30975306 0.23911107 0.25545615 0.27256268 0.36266178 0.42945144 0.43647093 0.35447246 0.47033447 0.5128327 0.49504083 0.4930374 0.5625705 0.5619998 0.60148525 0.6644206 0.42288372 0.439462 0.45746017 0.61153764 0.48762068 0.2395759 0.14364508 0.19099402 0.24336012 0.25464603 0.12709987 0.2853429 0.31687 0.2988717 0.27478576 0.21484835 0.2683059 0.3110559 0.35691488 0.39452744 0.47734362 0.30688858 0.51408327 0.5180475 0.5408648 0.5176598 0.4822787 0.6103844 0.67608464 0.6620381 0.5918365 0.5421686 0.6383389 0.6195321 0.5675554 0.54287535 0.5645386 0.5971855 0.56000257 0.5415528 0.4325426 0.38031727 0.52712333 0.5033651 0.19509548 0.36610952 0.12621957 0.12933066 0.0396359 0.11710431 0.21881755 0.12007396 0.12771322 0.300295 0.14571247 0.06964775 0.30020976 0.3187439 0.122184105 0.29012552 0.2970751 0.32241803 0.11394712 0.24156386 0.30281967 0.18429728 0.14467919 0.26495254 0.2222744 0.31928965 0.484026 0.4205449 0.3439428 0.4592442 0.4596962 0.30870724 0.41021806 0.41585547 0.5370073 0.46780014 0.5270692 0.47376353 0.5492941 0.49788257 0.42551523 0.5059073 0.5338713 0.49304286 0.48953182 0.43403247 0.50552744 0.56380725 0.5131333 0.47232592 0.47343358 0.659156 0.6071428 0.6358961 0.64904773 0.6200121 0.5638145 0.62068653 0.6044117 0.5083057 0.12832728 0.04622205 0.14195716 0.17813028 0.13942403 0.14007108 0.175648 0.21039456 0.19348621 0.17225224 0.3089779 0.20023619 0.17518486 0.3401686 0.3702916 0.24143001 0.21139085 0.35394192 0.39752656 0.12355024 0.34942377 0.38602087 0.16809583 0.0719686 0.14370416 0.26170015 0.30854407 0.33886963 0.6497188 0.7331207 0.7812785 0.3715455 0.32101607 0.03261888 0.19778775 0.5267224 0.59220016 0.71964073 0.786883 0.3945958 0.3731104 0.300415 0.26663187 0.26883683 0.36772043 0.40097553 0.45015216 0.16037369 0.10150347 0.38767433 0.5928978 0.6986766 0.76715416 0.38122913 0.25770712 0.17407556 0.14677538 0.4204774 0.5264251 0.3427642 0.3300919 0.18255967 0.25175703 0.28160745 0.37134624 0.2861912 0.34746087 0.38121876 0.37454525 0.38097388 0.30828372 0.26178837 0.31561515 0.28482538 0.35390407 0.31681967 0.30320418 0.3943097 0.64993966 0.58747673 0.41926616 0.37661123 0.6540609 0.67108655 0.56843233 0.46178597 0.39793932 0.62408066 0.35828847 0.36295542 0.37986392 0.38662577 0.55866814 0.5866039 0.31658033 0.28340548 0.41542727 0.32593495 0.4090093 0.4096362 0.24413608 0.10369941 0.15528232 0.06134189 0.07738561 0.18407342 0.12159395 0.14473131 0.23589239 0.22206932 0.3316724 0.2418024 0.3699016 0.25437653 0.39778292 0.23259954 0.18863864 0.36766028 0.6520958 0.77098703 0.8665304 0.32509488 0.2874073 0.5123433 0.6227895 0.75750166 0.8656513 0.9350889 0.40753388 -0.13621178 0.31915587 0.46034357 0.846578 0.9095541 0.43785807 0.41898006 0.18723094 0.025588334 0.7877951 0.85132277 0.45499223 0.34120885 0.24358377 0.080835894 0.023950413 0.22344455 0.5367045 0.59906805 0.71492946 0.0195519 0.14826187 0.4415271 0.5022118 0.5255369 0.089889795 0.14159642 0.24170236 0.36366957 0.027160514 0.19948664 0.10991149 0.14014302 0.13687071 0.20405757 0.1996026 0.24422 0.16459851 0.09356085 0.47705144 0.48382318 0.53327954 0.4669317 0.6326286 0.5135588 0.49922353 0.65387535 0.35000336 0.6463071 0.27422348 0.55900323 0.27058563 0.35658267 0.35264403 0.32294095 0.48697203 0.31678587 0.36313352 0.16400278 0.21403667 0.17470056 -0.114349544 0.18857795 -0.0051871985 0.10286708 0.13200013 0.24747235 0.18374945 0.31160757 0.11082633 0.29632735 0.50207317 0.5984055 0.67268914 0.765241 0.88109183 0.94601524 0.27192786 0.10714866 0.99291515 0.34832758 0.34434226 1.0 0.36328626 0.441589 0.031503007 0.8531265 0.10906948 0.047380105 0.620793 0.680066 0.7367816 0.12044044 0.45245892 0.49411958 0.14908993 0.12541543 0.3645702 0.14677477 0.11559066 0.31518075 0.08047173 0.07137153 0.02153445 0.11089431 0.14951414 0.3981861 0.22397631 0.5733219 0.5324194 -0.0040477235 0.14847037 0.61810625 0.6297847 0.62512875 0.5200103 0.4367069 0.64424676 0.6551319 0.6421132 0.5183325 0.46589968 0.703843 0.69096804 0.64467937 0.57449436 0.6433 0.6862543 0.6670818 0.56973374 0.5120009 0.58679783 0.405353 0.49806207 0.7894037 0.82592475 0.814239 0.2774722 0.7139499 0.80910784 0.81675255 0.47239602 0.2628709 0.20247835 0.403893 0.54890484 0.7312803 0.79491526 0.36462376 0.21446562 0.4127832 0.6548966 0.29602918 0.34096348 0.09590796 0.09218239 -0.24398409 0.20738286 -0.23978281 0.20276086 0.15296149 -0.08935748 -0.02772165 -0.13938554 -0.110399194 0.14584005 -0.078698695 0.12028497 -0.07068063 -0.007116303 0.55760527 0.6103699 0.81168187 0.8966855 0.9253708 -0.01831789 0.92628527 0.2499241 0.1375758 0.89556444 0.78542197 0.6523534 0.63465124 0.24352011 0.6173283 0.7040714 0.7020583 0.72201884 0.7376664 0.3735373 0.40354797 0.48464566 0.7352071 0.7497224 0.75623643 0.38646856 0.2948592 0.3729907 0.7516875 0.75448 0.69337225 0.5585818 0.121447474 0.16133189 0.30284077 0.5795684 0.11685143 0.11071355 0.19805318 0.34543148 0.22857232 0.34886873 0.5428562 0.30766535 0.39727336 0.6107626 0.30555823 0.40477538 0.44317332 0.6407001 0.66278917 0.6581943 0.5382531 0.44426656 0.6884051 0.6896371 0.6586276 0.67028254 0.69888926 0.6845231 0.6399015 0.51784146 0.6420435 0.447115 0.29421616 0.4782797 0.8123641 0.8025936 0.7911271 0.26244843 0.50915575 0.8173467 0.79037786 0.7543242 0.2940034 0.066618845 0.048141807 0.78334796 0.7301054 0.28192624 0.08950461 0.17489618 0.691666 0.6891866 0.27124408 0.56734055 0.26118898 0.23069817 0.27516803 0.14328182 0.27518162 0.23498124 -0.27622277 -0.26846933 -0.17107496 0.21411556 -0.18802372 -0.15184605 -0.0027564578 0.28171206 0.33736464 0.23476762 0.3015228 0.35895473 -0.15227148 0.1480666 -0.15444505 0.65768695 0.87643385 0.81434727 0.87009466 -0.042831104 0.7893797 0.8384733 0.64239514 0.73772836 0.6154623 0.47839493 0.48394707 0.60186446 0.64028484 0.64681625 0.3503113 0.4183193 0.67488253 0.7074225 0.07559164 0.046982296 0.19054006 0.2544578 0.6721418 0.7028889 0.7301517 0.4517732 0.12759456 0.06497295 0.14887875 0.6587358 0.5732042 0.14784735 0.1114839 0.25244668 0.35103637 0.48178524 0.46136886 0.42246175 0.53933364 0.37378162 0.46650875 0.50513184 0.50050443 0.5913179 0.6486274 0.6239581 0.49885464 0.35387892 0.47016868 0.51458573 0.6356972 0.60801315 0.6848688 0.6395106 0.5072554 0.54751056 0.51396716 0.53579056 0.66448164 0.23405012 0.39803755 0.52279305 0.28739348 0.7479746 0.75475454 0.21978912 0.18729386 0.4172697 0.73200715 0.73054886 -0.06925814 -0.049677536 0.6777957 0.13401794 0.57308245 0.17204742 0.36042193 0.21806768 0.16330111 0.24853936 0.08494446 0.28153834 -0.07241286 0.2697059 0.26361012 -0.18250568 -0.113655575 0.13410558 0.27230608 0.35848743 0.24621257 0.014081791 0.29980698 0.36345714 0.40297982 0.4022262 0.42753428 0.020765297 -0.009489424 0.3400089 0.40542442 -0.040786456 -0.18964788 -0.13398038 -0.17474568 0.7431015 0.19712943 -0.07345833 0.02726059 0.41268402 0.44863105 0.22836874 0.5812505 0.46981704 0.05749819 0.60506266 -0.022958945 0.0927606 0.19601987 0.5890847 0.045175105 0.6435466 0.5416156 0.42923945 0.16042118 0.16276763 0.24684694 0.2263932 0.43384492 0.30783254 0.09515455 0.3273064 0.21031335 0.4730661 0.4271422 0.2803183 0.43164855 0.20257688 0.5408319 0.52965695 0.4895681 0.5569637 0.5460217 0.4537301 0.47042838 0.5259899 0.538574 0.6334826 0.6688535 0.6556604 0.6206577 0.6371572 0.5930941 0.5659956 0.4996831 0.52276754 0.46357843 0.41991934 0.3530589 0.5272769 0.2957465 0.28493482 0.64832675 0.6878489 0.70159614 0.15986145 -0.047410324 0.42131743 0.6516624 0.59520733 0.5632001 -0.029830426 -0.07293183 0.36493975 0.04324209 -0.07406154 0.3458392 0.2877226 0.17489196 0.17465791 0.103930056 0.2480346 -0.18250498 -0.16857983 0.19985715 0.032841995 0.33934036 0.38752997 0.39386833 0.42176586 0.06533545 0.07050795 0.4524528 0.45653668 0.064061366 0.063227154 0.481666 0.026622916 0.46795547 -0.051691573 0.3594728 0.09575991 -0.06788226 0.22660697 -0.03069076 0.4469853 0.35476294 0.51585144 0.011505374 0.54932976 0.58436936 0.08886874 0.561634 0.52299976 0.17531292 0.14114599 0.53426826 0.49713802 0.4245333 0.14614643 0.29892322 0.08948156 0.08419631 0.40308666 0.1757885 0.33519524 0.16568646 0.29799163 0.5247704 0.49110168 0.39780515 0.41719356 0.43972766 0.3201967 0.46925634 0.50596774 0.53137726 0.58005 0.59435296 0.57608175 0.6077603 0.64385307 0.62077093 0.5889183 0.523338 0.57279885 0.5507904 0.22963358 0.46471304 0.34468222 0.3581714 0.13192272 0.2481669 0.21852803 0.044318996 -0.045676082 0.53492546 -0.0640201 -0.16553663 0.52294534 0.37908593 0.24868113 0.2663052 -0.0011657029 0.19157326 0.065137364 0.1452091 0.07833084 0.069555566 0.06960785 -0.011638269 -0.09834565 0.009595483 0.21361957 0.32521653 0.361926 -0.024071071 0.3939972 0.4021927 0.3986579 0.06487457 0.40493 0.36915672 0.0777147 0.4079641 0.07160934 0.44765592 -0.09948879 0.23294702 0.0032974407 -0.012692181 0.11405176 0.09653549 0.28427273 -0.031299464 0.43056214 0.5108503 0.10191299 0.5312307 0.19894718 0.5249945 0.49671793 0.442971 0.2878092 0.08661918 0.2723465 0.10344367 0.09740618 0.09848386 0.38485885 0.36245036 0.338583 0.13421169 0.21298468 0.20029789 0.26971328 0.39116743 0.46010685 0.4701362 0.44953182 0.35078 0.44169125 0.49376383 0.47946405 0.5379058 0.49661118 0.4612675 0.42895794 0.33911228 0.4921353 0.52943814 0.5212157 0.5059644 0.4909562 0.44911307 0.46465948 0.45715147 0.35506085 0.36875898 0.32844567 -0.007830396 0.24724138 -0.05612472 0.05309411 0.42031217 0.047554146 0.43075597 0.41508466 0.35656902 0.3874449 0.38439465 0.106644236 0.22178473 0.21091816 0.11479613 0.10463955 0.10671795 0.085077256 0.08993018 0.052065372 -0.0398888 0.2182348 0.28129357 0.33186793 0.35640675 0.020384483 0.3583098 0.33778012 0.06345775 0.355025 0.28360823 0.08278108 0.28083405 0.06398757 0.018046081 0.20908546 0.018052544 0.29392612 0.0013292469 -0.36345172 -0.07369826 0.12068266 0.047987785 0.041274637 0.19296673 0.021494038 0.1471374 0.07566423 0.384586 0.43661684 0.059346296 0.038886547 0.50578326 0.48094407 0.27655193 -0.07464519 0.106264606 0.3313266 0.3038826 0.20997271 0.21841052 0.188593 0.2647043 0.3586867 0.41278687 0.45205015 0.42620137 0.39222264 0.5011827 0.26186344 0.45983517 0.45639932 0.36638892 0.3571839 0.3525151 0.41390324 0.26668024 0.23247588 -0.07683283 -0.14128643 0.18584071 0.38962582 0.34579182 0.43874964 0.4254496 0.3725952 0.14089012 0.4031789 0.4352121 0.3576338 0.39360735 0.089527026 0.32552233 0.27539182 0.035634734 0.21844551 0.05334328 0.04053229 0.12586306 0.04713802 0.06651501 0.14096753 -0.041641504 0.19080341 0.25047007 0.3034385 0.279205 0.29415363 0.2593182 0.21891575 0.2132234 0.32919106 0.24463712 0.4674638 0.17819294 0.11422779 -0.094847895 0.33514208 0.11432641 -0.1902973 0.10858624 0.055501346 0.14811341 0.17369635 0.20174436 0.22037557 0.075626895 0.39551556 0.14895459 0.19834103 0.1509861 0.22995335 0.2431337 0.13922104 0.26382512 0.07661877 0.0755495 0.183954 0.29228106 0.28611264 0.23231983 0.14201155 0.71870506 0.66869223 0.73778343 0.71678567 0.65212363 0.51829755 0.6915883 0.531478 0.34453207 0.25970855 0.42760682 0.113298036 0.06620071 0.22101595 0.33226585 0.23980777 0.35308248 0.21909873 0.20460351 0.08754705 0.3401595 0.28421015 0.17024887 0.19775149 0.41809583 0.24096061 0.3861671 0.41297954 0.16176635 0.35607994 0.12770487 0.28798652 0.23143065 0.19609338 0.025598362 0.1820344 0.03491129 -0.04808252 -0.011749968 0.056591306 -0.13497406 0.13410157 -0.11822064 0.1402238 0.12418416 0.31483337 0.17496479 0.32969254 0.43619788 0.4999178 0.4180625 0.4925173 0.49376863 0.405991 0.47974 0.52656674 0.3501682 0.3302145 0.5128577 0.5392187 0.48803538 0.19480792 0.21253243 0.20263043 0.21574825 0.22602537 0.25161746 0.23774675 0.22975056 -0.18899482 0.016651936 0.2822075 0.2761985 0.32055536 0.31545472 -0.23348564 0.3200182 0.19795322 0.1585879 0.13709104 -0.00052171946 0.21947917 0.17605065 0.093426175 0.14379676 0.025958845 0.083826095 0.072157174 0.1185538 0.023091257 0.11373532 0.15635559 0.12373856 0.7190091 0.68965065 0.6707825 0.7567557 0.73535216 0.67463624 0.60122967 0.7625225 0.73422235 0.26330692 0.09063944 0.07882491 0.534834 0.5153142 0.1332053 0.16520917 0.10965068 0.11830955 0.09765033 0.10253977 0.06175907 0.034606174 0.14641215 -0.43838635 0.112830065 0.10804134 0.19745074 0.24028964 0.25846776 0.23623991 0.22072445 0.18834844 0.2609216 0.11719078 0.24760737 0.057661775 0.23285723 0.1951372 0.028391248 0.123472005 -0.1398535 0.043335482 0.04443004 -0.026568674 -0.06255003 -0.009013906 0.027419865 0.033542857 -0.041430175 0.0050154924 0.12914532 -0.0005892664 0.21020287 0.34797028 0.39621717 0.4103529 0.48618215 0.536739 0.47059408 0.55630386 0.5535854 0.58026576 0.5074613 0.56104 0.3847303 0.4727993 0.5166002 0.15390785 0.3426959 0.42901978 0.21702477 0.25974786 0.25124365 0.20978281 -0.14883986 0.16191225 0.22039273 0.25081745 0.37897754 -0.4039334 0.40493017 0.3935017 0.36375684 0.3189798 0.21850966 0.19010432 0.14579472 -0.02956228 0.01247802 -0.00016815588 -0.0055005923 0.14019947 0.15156533 0.11910637 0.06063081 0.108846076 0.13246477 0.13700666 0.72595495 0.710263 0.69886327 0.6401433 0.7641839 0.7437301 0.5497947 0.78134143 0.20138897 0.12394272 0.69029444 0.09434928 0.11286956 0.20746717 0.5577717 0.23555475 0.41019583 0.14567612 -0.17300314 0.086968005 -0.24120146 0.051965684 0.2804058 0.09536244 0.039278205 0.3432029 0.21661077 0.27270725 0.27658272 0.15773776 0.20294571 0.13227968 0.17192034 0.14023098 0.19546928 0.08663707 0.15156512 0.15381464 -0.04984359 -0.0025164634 0.12590958 -0.05220563 -0.016929612 -0.020962775 0.077880785 -0.048550285 0.06434883 0.19762486 0.40196133 0.44001788 0.4873023 0.5075033 0.5325273 0.48399305 0.5858868 0.55167097 0.623888 0.53565377 0.41260156 0.5778839 0.34447512 0.48255205 0.5398375 0.1628698 0.21754108 0.36653918 0.46873826 0.15951933 0.26235932 0.25671774 0.20651364 0.18805408 0.27951002 0.30252126 0.1964227 0.21600196 0.36962637 0.070737086 0.10487741 0.13547996 0.38963884 0.386175 -0.054041326 0.22578657 0.36290726 0.30875388 0.25208268 -0.17564435 -0.07109377 -0.01226636 0.16812202 0.0742562 0.20001876 0.14178595 0.13184518 0.060724348 -0.110547625 0.106467366 0.15294509 0.7900054 0.84083164 0.62839746 0.74399644 0.8024957 0.8936835 0.7480371 0.56537205 0.6910853 0.75275517 0.82048583 0.8110594 0.6950841 0.72416085 0.75582147 0.70995295 0.7189679 0.71112823 0.63693595 0.721503 0.67660123 0.4462908 0.22022949 0.69290996 0.1361793 0.12159676 0.5488856 0.05567286 0.092760935 0.14573689 0.47455847 0.28850505 0.20506555 -0.108632565 0.21807908 0.09730253 0.3710041 0.32323113 0.08445263 0.33927694 0.18995972 0.26763496 0.2974035 0.10946152 0.2042899 0.14418703 0.19426414 0.12776269 0.03079778 0.05417222 0.08431348 -0.059062578 0.070823446 0.14964822 0.13734761 0.13739267 0.015303042 0.08908234 0.05958146 0.049223945 0.16012469 0.25266042 0.059197955 0.16420019 0.030555436 0.16685665 0.050032515 0.3282934 0.44478658 0.46967492 0.49668863 0.45074552 0.403378 0.49528584 0.48115623 0.43265325 0.5787763 0.48718682 0.3595037 0.6087023 0.5707539 0.12588006 0.35709867 0.47323895 0.21965738 0.03245941 0.24471177 0.23989275 0.09277439 0.2689142 0.29167297 0.14649299 0.15284973 0.15586813 0.33283156 0.08799262 0.121736445 0.33523977 0.30523747 0.21274847 0.117849626 0.31021726 -0.24511582 -0.030280784 0.17287087 0.09604473 0.061934426 0.219354 0.11025084 0.094572455 0.11889662 0.10446415 0.004314296 -0.096763395 -0.04948356 0.058863796 -0.024019942 0.06440659 0.19078828 0.1685224 0.19812731 0.07996815 -0.016750857 0.4958791 0.47723877 0.39161158 0.63765013 0.74745727 0.4971254 0.36322123 0.36592036 0.6779652 0.5045746 0.43754953 0.62026066 0.64540774 0.58155465 0.60447884 0.60464555 0.6537399 0.5288036 0.60417205 0.6468565 0.63970023 0.66546774 0.65838164 0.59507406 0.44771636 0.6107051 0.33546957 0.59309053 0.23023304 0.09552859 0.38080084 0.39539105 0.054173056 0.09818594 0.21175635 0.30590463 0.13395745 0.308535 0.33176938 0.31181377 0.33180344 0.023133762 0.28828904 0.36342642 0.33120152 0.3549571 0.11651859 0.2845053 -0.14019892 0.21107554 -0.004659608 0.088792756 0.14683227 0.05101494 -0.037399262 0.07795573 0.16072114 0.030452557 0.17925371 0.08452737 -0.13203257 -0.058642015 0.14890888 0.1507678 0.074929774 0.13725007 0.1206612 0.31008935 0.12950754 0.26089838 0.35972774 0.40750098 0.21315524 0.3168808 0.22571072 0.16873644 0.00820539 -0.13495941 0.28667158 -0.16247125 0.3018547 0.3720628 0.33665136 0.24521007 0.35326877 0.36522487 0.24845195 0.47943008 0.32498085 0.04663775 0.53800225 -0.10938816 0.54818547 0.56961304 0.16886543 0.37413096 0.45593497 0.09090833 0.060819134 0.03564828 0.23314896 0.14447588 0.27115434 0.15046597 0.27897304 0.13391224 0.24705522 -0.009836689 0.19839565 0.14449085 0.119417325 0.02094359 0.10343762 0.12169215 0.06499249 -0.07270347 0.057738364 0.06582779 0.25304872 0.1762432 0.22468138 -0.061376326 0.08772384 0.11766981 0.23576596 0.50664854 0.22210987 0.24565043 0.2782554 0.18983531 -0.022232994 -0.005566433 0.17734028 0.099594004 0.018484704 0.43704665 0.69162357 0.74731636 0.6324655 0.28518388 0.30577758 0.20073338 0.57805216 0.7864444 0.8298787 0.7862961 0.446658 0.27149445 0.24297501 0.6769495 0.78926146 0.8254616 0.8251211 0.3028682 0.375212 0.45183337 0.43186903 0.2670488 0.45078555 0.46070623 0.41645157 0.31799746 0.52604717 0.40294594 0.39493525 0.38886434 0.5889013 0.54440427 0.5701379 0.51550996 0.4493491 0.42467073 0.33915135 0.51912045 0.26244265 0.20141122 -0.066048756 0.08744141 0.26719108 0.31800458 0.15845683 0.3828184 0.395979 0.4605474 0.37336248 0.15399686 0.35441178 0.26467633 0.32136863 -0.11313505 0.38189435 0.27702892 -0.22011264 0.32674608 0.26586294 -0.31250858 0.21771094 -0.19119143 0.14080644 0.06441946 0.37002367 0.4552757 0.043791436 0.07134413 0.159161 0.2532924 0.4202236 0.49278945 0.05331569 0.45892513 0.15621516 0.08677713 0.3860277 0.047247365 -0.15943381 0.29304424 -0.34366384 0.14957917 0.16360351 0.24306497 0.09142381 0.2773462 0.37300855 0.43161574 0.15697706 0.42954326 0.47836396 0.11676632 0.34424782 0.48966432 -0.016230993 -0.025982589 0.3043508 0.03833431 0.17122552 0.19916342 0.15830678 0.24666232 0.19914682 0.24941951 -0.034348816 0.1508679 0.17887285 0.22782099 0.20210631 0.17027885 0.12382746 -0.05223026 0.061536204 0.04864063 -0.06717995 -0.10941541 0.24800053 0.20755218 0.3240087 0.1659968 -0.083373025 -0.08017701 0.075908214 0.40683812 0.41358125 0.20418496 0.2700856 -0.05537028 -0.07739897 0.28586292 0.56425077 0.5197743 0.29011396 0.39581624 0.06955443 0.05653079 0.3232059 0.53378034 0.7361605 0.6228663 0.24430634 0.6319245 0.76235175 0.8038026 0.78934175 0.22767389 0.7570267 0.7683823 0.3041458 0.3113095 0.0848819 0.37770486 0.35309935 0.27703792 0.13642935 0.3811561 0.35999528 0.38622862 0.40967673 0.30290058 0.34153363 0.34792894 0.54511756 0.523466 0.4737051 0.25936332 0.2692991 0.29543212 0.60396546 0.58084035 0.5281953 0.55766356 0.34725362 0.32941037 0.31020916 0.31806934 0.22778954 0.23536253 0.2693815 0.1834988 0.10097681 0.1988883 -0.051734686 0.051182605 0.19091979 0.37515104 0.5140653 0.5474841 0.61358386 0.5960492 0.64708 0.047372483 0.5398519 0.2544798 0.14492983 0.33753568 0.45848656 0.320333 -0.22831084 0.46922797 0.18200085 0.50071275 0.16618136 0.37379193 0.025547404 0.2646174 -0.15652575 -0.07100159 0.40165102 0.49922198 0.5406533 0.20