# vtk DataFile Version 2.0
Really cool data
ASCII
DATASET POLYDATA
POINTS 6262 float
-33.552254 -29.997347 -14.496237
-33.561195 -29.894001 -13.555061
-33.547874 -29.520823 -15.189191
-33.598877 -29.580523 -14.239866
-33.566296 -29.560276 -13.608477
-33.534023 -29.153055 -14.35259
-32.57521 -35.99449 -15.882251
-32.62277 -36.153767 -15.35157
-32.615143 -36.19759 -14.823392
-32.605133 -35.603054 -15.863505
-32.699802 -35.717205 -15.387525
-32.63121 -35.691376 -14.579944
-32.560734 -34.415825 -16.23574
-32.659725 -34.82554 -15.220572
-32.59629 -34.91565 -14.453403
-32.546124 -33.718437 -16.349636
-32.594223 -33.89582 -15.528933
-32.631924 -30.867722 -16.340332
-33.061466 -30.758537 -13.700014
-32.802223 -30.668438 -12.962634
-33.06876 -30.463755 -15.816693
-33.398216 -30.152378 -15.360442
-33.389973 -30.479473 -14.611183
-33.30206 -30.392076 -13.491692
-33.097603 -30.098005 -12.804563
-33.20852 -29.514385 -15.982099
-33.44917 -29.467985 -15.471997
-33.471146 -29.512129 -13.246919
-33.288536 -29.366531 -12.867418
-32.995163 -28.989817 -16.04487
-33.181923 -28.773764 -15.334291
-33.246094 -28.66669 -14.578678
-33.270504 -28.836214 -13.487545
-33.094597 -29.021877 -12.894027
-32.934032 -28.392693 -15.051488
-32.81977 -28.231174 -14.588895
-32.828976 -28.347021 -13.732555
-32.028637 -36.778538 -15.88097
-32.076794 -36.9701 -15.286391
-32.046143 -37.003334 -14.607391
-31.703083 -37.09729 -13.968469
-32.195953 -36.227 -16.155052
-32.41288 -36.538235 -15.421187
-32.3989 -36.469753 -14.502839
-31.90308 -36.55178 -13.700674
-31.738281 -36.23288 -13.27231
-32.202606 -34.93804 -16.835712
-32.298737 -35.54127 -16.223747
-32.48323 -35.917637 -14.349886
-32.264866 -35.372353 -13.959411
-32.199253 -34.25995 -17.14134
-32.4154 -34.365204 -16.71124
-32.387466 -34.221745 -14.28369
-32.29923 -34.40238 -13.993867
-31.742418 -34.943615 -13.290844
-31.823597 -33.04172 -17.912079
-32.22953 -33.70511 -17.212578
-32.47277 -33.23779 -16.80665
-32.50553 -33.098263 -15.109891
-32.29609 -33.875137 -14.30602
-32.01754 -33.55256 -13.767361
-31.66897 -32.362637 -17.96756
-31.990122 -32.139637 -17.367796
-32.229492 -32.572895 -16.71822
-32.431004 -32.55184 -15.632931
-32.077297 -32.461823 -14.463601
-31.932543 -32.465828 -14.175786
-31.643103 -31.08765 -18.310135
-31.93054 -31.63894 -17.718464
-32.31544 -31.960388 -16.581406
-32.528587 -31.520393 -14.799187
-31.605804 -29.955725 -19.957205
-31.517193 -30.09375 -19.65802
-31.850758 -30.953371 -17.565966
-32.542313 -30.249296 -12.532505
-32.340843 -29.98059 -12.360856
-31.556768 -29.44114 -20.358358
-31.627434 -29.162464 -19.828762
-32.70264 -29.219843 -12.45142
-32.421974 -29.470152 -12.364589
-31.547873 -28.94353 -19.995808
-31.563702 -28.858795 -19.635162
-32.55992 -28.850996 -16.25664
-32.43925 -28.90888 -12.55759
-32.068836 -28.98995 -12.4065695
-32.54028 -28.186378 -15.242949
-32.441177 -28.03923 -14.515479
-32.643196 -28.251095 -13.721424
-32.624706 -28.378933 -13.122363
-31.118269 -37.61527 -14.210753
-30.903288 -37.67363 -13.781257
-31.680784 -36.822243 -16.088684
-31.431288 -37.28304 -15.281229
-31.393126 -37.39171 -14.630159
-31.240076 -37.335014 -13.512259
-30.978046 -37.186924 -13.069367
-31.275139 -36.000217 -17.04453
-31.475592 -36.45088 -16.453175
-31.55073 -36.641773 -13.355966
-31.054071 -36.44275 -12.814693
-31.012096 -35.242237 -17.952784
-31.239975 -35.287872 -17.516228
-31.067331 -35.451088 -12.826786
-31.33379 -34.59178 -17.893316
-31.281256 -34.67545 -13.078873
-31.275585 -33.26002 -18.276203
-31.499317 -33.733498 -13.168521
-31.231571 -32.01442 -18.450096
-31.449015 -31.952137 -13.594422
-30.999521 -32.617775 -13.413755
-31.104506 -31.142187 -19.464691
-31.308609 -31.533928 -18.474907
-30.610085 -30.142185 -23.094746
-30.71801 -30.472395 -22.41224
-31.430492 -29.968313 -20.739586
-31.383354 -30.580818 -19.631866
-31.31724 -30.699198 -18.357801
-30.994774 -30.363703 -12.651196
-31.31305 -30.022171 -12.364519
-30.576004 -29.973661 -23.10705
-30.757654 -29.561428 -22.27631
-31.170822 -29.527946 -21.272442
-31.468592 -29.428265 -20.599367
-31.672314 -29.444069 -12.313332
-31.03341 -28.700037 -21.038458
-31.399069 -28.7044 -20.281538
-31.404003 -28.489569 -19.472153
-31.22286 -28.688877 -18.842108
-31.7439 -29.073854 -16.737919
-31.346815 -28.552267 -16.289145
-31.653353 -28.675236 -12.663483
-30.830318 -28.315512 -20.79843
-31.156822 -28.208973 -20.119518
-31.147627 -28.111814 -19.655724
-30.69447 -27.813215 -18.836668
-31.7506 -27.90501 -15.318483
-31.161854 -27.567842 -14.6614895
-31.793419 -27.849854 -13.995245
-31.298643 -28.175375 -12.988078
-30.62129 -37.5935 -14.972658
-30.560162 -37.779026 -14.391587
-30.457205 -37.812378 -13.526882
-30.32287 -37.646458 -13.082511
-30.725494 -36.797054 -16.384857
-30.316582 -37.14632 -15.465101
-30.345472 -37.310776 -12.817982
-30.234219 -36.058727 -17.854084
-30.519905 -36.67647 -12.5828085
-30.220215 -36.130524 -12.400043
-30.118855 -35.060684 -18.95521
-30.198061 -35.458492 -18.551304
-30.085413 -35.452995 -12.537678
-30.168745 -35.76739 -12.382121
-30.377163 -34.57095 -12.798586
-30.257517 -33.712368 -18.905521
-30.624603 -33.108463 -18.43333
-30.117615 -33.32206 -13.102187
-29.633615 -32.435566 -23.011604
-29.87715 -32.28257 -22.230806
-29.976957 -31.92016 -21.573359
-30.020761 -31.965982 -20.751297
-30.647543 -32.528316 -18.573933
-29.817463 -30.93176 -24.097555
-29.985 -31.367668 -23.49803
-30.46404 -31.05514 -22.657923
-30.531519 -31.048647 -12.920077
-29.990547 -30.42376 -24.064768
-30.348392 -30.497604 -23.481436
-30.531933 -30.797575 -22.587643
-29.878662 -29.728151 -24.15707
-30.377419 -29.719936 -23.353304
-30.797117 -29.427689 -12.345848
-29.699247 -29.212769 -24.133623
-30.058859 -29.245287 -23.469952
-30.32537 -28.966839 -22.453943
-30.627584 -28.623531 -21.519226
-30.910507 -28.366062 -12.810043
-30.611185 -28.978546 -12.417484
-30.31069 -27.567686 -20.44716
-30.610435 -27.428679 -19.48332
-30.407618 -27.286474 -18.127106
-30.807438 -27.541502 -13.671143
-30.038282 -27.18883 -20.143982
-30.11407 -26.891216 -19.559807
-30.050991 -26.752209 -18.575775
-30.00468 -26.934004 -17.602327
-30.400328 -27.32111 -14.495529
-29.851233 -23.384912 -12.311234
-30.005852 -23.057018 -11.580974
-29.710234 -23.038057 -11.037437
-30.040083 -22.188482 -12.964158
-30.155151 -22.405697 -12.313401
-29.904818 -22.447659 -10.911487
-29.702421 -21.598686 -13.289552
-30.139862 -21.73245 -12.279556
-30.04049 -21.340124 -11.218064
-29.88108 -21.533007 -10.736309
-29.69625 -20.735628 -12.936659
-29.857063 -20.527508 -12.373154
-29.960213 -20.517126 -11.567029
-29.673773 -20.209223 -10.462563
-29.666065 -19.820711 -12.232374
-29.717394 -19.659584 -11.498841
-29.615 -19.825031 -10.735495
-29.579954 -6.85124 -22.046652
-29.599512 -6.8339357 -21.854567
-29.56402 -6.06784 -22.811787
-29.692432 -6.2935286 -22.357187
-29.671598 -6.3911815 -21.74074
-29.60947 -5.517377 -22.796488
-29.704786 -5.6225643 -22.246185
-29.660158 -5.6662188 -21.673779
-29.660719 -37.941692 -13.963818
-29.72493 -37.79767 -13.514468
-29.76973 -37.68132 -13.131665
-28.869637 -36.69547 -17.901573
-28.861101 -37.3293 -16.38255
-29.086018 -37.292793 -15.251844
-29.666197 -37.189568 -12.728269
-29.707218 -36.85987 -12.438442
-29.194014 -36.080498 -19.054926
-29.202637 -36.17079 -18.727697
-29.664679 -36.747753 -12.505613
-29.518545 -36.347733 -12.415527
-28.934647 -35.315563 -21.194708
-28.913889 -35.568478 -20.75525
-29.686323 -35.432022 -18.789968
-29.487993 -35.54584 -12.495701
-29.619139 -35.755352 -12.395399
-29.046593 -33.978706 -22.170895
-29.250633 -33.948135 -21.692366
-29.365513 -34.24987 -20.311451
-29.396832 -34.55903 -12.871264
-28.803976 -33.10043 -23.65163
-29.102331 -33.20323 -23.102734
-29.133474 -33.700512 -22.677235
-29.386024 -33.374928 -21.710554
-29.86163 -33.5239 -13.091279
-29.000063 -32.14419 -23.855017
-29.191923 -32.602932 -23.486784
-28.998972 -30.918259 -24.807236
-29.287548 -31.294167 -24.34316
-29.631748 -30.874758 -12.8759775
-29.182316 -30.331528 -24.928665
-29.587456 -30.510254 -24.567787
-30.02371 -30.615269 -12.750364
-29.126225 -29.708733 -25.031912
-29.431532 -29.299517 -24.56992
-28.981115 -29.180092 -24.894686
-29.094738 -28.950516 -24.476612
-29.407986 -28.825811 -23.577827
-29.478724 -28.219027 -21.93883
-29.277342 -27.33388 -20.71032
-29.40655 -27.445465 -13.70714
-29.672266 -27.955603 -13.193491
-29.3325 -26.726881 -20.297327
-29.43082 -26.863077 -16.999235
-29.095436 -26.527887 -15.966006
-29.793533 -27.40341 -14.245818
-29.08983 -26.2344 -20.019112
-29.06983 -25.936172 -19.295761
-29.329618 -25.989677 -18.485685
-29.115274 -25.748398 -17.566278
-29.125204 -25.707195 -17.034359
-28.643873 -24.834066 -17.408588
-28.737267 -24.913527 -16.874184
-29.236029 -23.74902 -11.62238
-28.89569 -23.670082 -10.880863
-28.794775 -23.728106 -15.1270275
-29.331345 -23.156633 -14.314587
-29.14677 -23.264614 -10.590926
-29.012638 -22.921192 -10.141534
-28.80684 -22.505573 -15.717264
-29.129555 -22.478596 -15.219872
-29.44893 -22.689732 -14.482714
-29.574333 -22.424826 -10.410023
-28.9097 -22.158937 -9.65696
-28.668478 -21.748837 -15.744218
-29.218475 -21.731405 -14.894212
-29.420418 -21.730366 -14.423069
-28.998579 -21.38753 -9.587484
-28.746328 -21.317873 -9.315608
-29.092434 -20.916124 -14.169526
-29.269058 -20.675089 -13.469423
-29.149033 -20.376366 -9.6354475
-28.717905 -20.31748 -13.9437
-28.956684 -19.788582 -13.099909
-29.449156 -19.69865 -12.3224
-29.42241 -19.250153 -10.531939
-29.13761 -19.628616 -9.687893
-28.729658 -19.093029 -9.2090025
-29.106773 -18.888508 -11.918828
-29.091904 -18.479692 -11.36126
-29.158619 -18.51189 -10.477447
-28.856134 -18.789997 -9.53027
-28.662048 -18.53814 -9.29669
-28.896048 -18.065063 -11.138005
-28.82359 -17.929882 -10.594487
-28.799393 -18.05795 -10.052062
-28.752583 -7.7463307 -22.04019
-28.857243 -7.6378202 -21.60106
-28.670586 -6.824049 -23.835316
-29.003555 -7.092609 -23.107748
-29.292648 -7.1538773 -22.340488
-29.286285 -7.145705 -21.602566
-29.065514 -7.037079 -21.062723
-28.86288 -6.253398 -23.98386
[...]
POINT_DATA 6262
SCALARS features_00 float 1
LOOKUP_TABLE default
0.6681621 0.78090405 0.6742699 0.7402488 0.8037951 0.75175333 0.5572503 0.60906863 0.6381929 0.5254843 0.5640979 0.58996034 0.3961565 0.4828421 0.50988305 0.3376892 0.3814488 0.21419728 0.61588764 0.7261758 0.442397 0.5713551 0.5731802 0.7241998 0.8245677 0.6051239 0.65777767 0.84208643 0.8637888 0.62902206 0.6783248 0.72724557 0.83131325 0.85963804 0.66885364 0.68077564 0.76276016 0.60651976 0.6707078 0.70795155 0.7279303 0.5405779 0.63680196 0.6785049 0.7073841 0.69461775 0.38374466 0.48264706 0.6238292 0.57523036 0.3311028 0.3621054 0.43551588 0.46201953 0.5550872 0.23576081 0.2979886 0.28370064 0.30907384 0.39583886 0.37439212 0.17681643 0.16205205 0.2246732 0.26777893 0.29592916 0.31296578 0.050273947 0.1079714 0.1643626 0.29435328 0.2692405 0.23853146 0.07778184 0.75315857 0.72681415 0.33536813 0.34494936 0.8062282 0.7594445 0.35905617 0.35793552 0.5912984 0.77438194 0.71635365 0.6176218 0.639866 0.7403339 0.790331 0.7235031 0.74909383 0.57398033 0.6585732 0.7031437 0.75232553 0.7619485 0.36419734 0.48931733 0.72785604 0.7197931 0.23939097 0.29389095 0.6149593 0.28268832 0.5249737 0.2343463 0.4128668 0.12212834 0.30672383 0.31351388 0.07155651 0.07873574 0.46302614 0.38974416 0.30575463 0.15448946 0.048410065 0.4782882 0.5706625 0.4648645 0.39789572 0.35199857 0.3421777 0.6558579 0.3603717 0.3631576 0.36597514 0.30985138 0.44775784 0.4626024 0.6786661 0.35013247 0.3649089 0.3738479 0.3337106 0.54788077 0.53603643 0.62361324 0.6460631 0.6161772 0.68916035 0.7613549 0.76930815 0.4346494 0.50936943 0.7572136 0.16329506 0.7164463 0.6508353 0.12969492 0.14953355 0.57559335 0.61138415 0.4938259 0.18439442 0.2192644 0.37746918 0.31787762 0.2899875 0.26159763 0.14674829 0.15838458 0.5252003 0.43369818 0.3999421 0.28335178 0.5708271 0.49823806 0.39986807 0.61781764 0.49473807 0.5670867 0.6246878 0.51136744 0.39982647 0.3574078 0.6124558 0.5733478 0.32328957 0.36312485 0.2614904 0.54956514 0.30286047 0.31843674 0.30146617 0.22049287 0.43894416 0.5293023 0.5489329 0.503458 0.4745707 0.5894935 0.54173446 0.40536147 0.5292437 0.5664518 0.55640787 0.38760138 0.43859828 0.516717 0.5615615 0.45350176 0.54533255 0.57812923 0.7583449 0.7775266 0.7107981 0.7560166 0.80911744 0.73034465 0.78812087 0.83125 0.71588135 0.7484235 0.75496125 0.113072254 0.24395391 0.41871178 0.72421455 0.6965246 0.05905813 0.07178141 0.68937385 0.6495862 0.12860946 0.08846972 0.10512087 0.5669887 0.5965489 0.23151103 0.20324065 0.054714363 0.44968867 0.29783863 0.27895078 0.2528416 0.19989346 0.392258 0.39518565 0.33105612 0.627725 0.5176295 0.117732584 0.71076876 0.63339007 0.28545874 0.74973124 0.6903159 0.7245788 0.66728 0.5316187 0.23321581 0.19113591 0.42697623 0.45615178 0.18963239 0.16458233 0.03113314 0.40661472 0.16379747 0.217752 0.25911364 0.19182712 0.14464483 0.16556135 0.11717753 0.4332807 0.44276685 0.25596082 0.37773016 0.46916407 0.4765874 0.34038395 0.3803144 0.3915791 0.50658464 0.5031387 0.3720275 0.40334612 0.40508562 0.5256805 0.54272425 0.34827313 0.34699458 0.5743609 0.29919484 0.32693923 0.4373659 0.63353264 0.61895823 0.6637342 0.55825174 0.69351125 0.7134111 0.69165254 0.720997 0.7801261 0.79992986 0.7745433 0.6768383 0.7365163 0.50064445 0.5954175 0.7025733 0.780246 0.8178964 0.55862737 0.66411906 0.70044315 0.83427423 0.8528869 0.5742638 0.66652673 0.75189745 0.84774214 0.84491575 0.6402998 0.77737486 0.81824875 0.8145995 0.4390258 0.44498968 0.14189777 0.20806159 0.33239967 0.08749174 0.61398584 0.67453563 0.08492133 0.028521545 0.61761063 0.1566646 0.5664717 0.24754068 0.23462763 0.2657364 0.44083562 0.60662 0.5300894 0.73555005 0.7734617 0.7276119 0.6215579 0.38303304 0.4118519 0.07725523 0.02641455 0.11396165 0.00041302852 0.11739434 0.1909737 0.2702363 0.20916587 0.17641231 0.15752766 0.03306417 0.17248878 0.31544957 0.30915383 0.3886497 0.41709578 0.14599928 0.10426827 0.45088083 0.16918275 0.27763045 0.54676974 0.32862905 0.5818515 0.33179635 0.30891436 0.63234246 0.65048635 0.27581206 0.26905483 0.66831386 0.34598407 0.59674627 0.75884503 0.73080266 0.84294534 0.8528321 0.8133017 0.7929263 0.8806968 0.42403764 0.60761905 0.6946871 0.74005723 0.38184616 0.4848737 0.56946474 0.78546584 0.46853223 0.45691168 0.8187783 0.8009732 0.43597096 0.7362811 0.7249991 0.33445525 0.53921795 0.5812551 0.7210145 0.6994416 0.41003656 0.43540913 0.53773445 0.5929792 0.6332028 0.35746208 0.44711375 0.48154986 0.48877248 0.5024462 0.5697242 0.5413773 0.4438166 0.46230125 0.4885596 0.45448875 0.39795172 0.55850166 0.58810735 0.6272403 0.59761465 0.58537555 0.5327921 0.46075594 0.3697041 0.42007983 0.45378864 0.4309976 0.37345245 0.59864306 0.63379645 0.6623202 0.586033 0.55882347 0.5100063 0.43261763 0.26819763 0.36062756 0.39396435 0.3902522 0.6140307 0.6230501 0.61508733 0.5473007 0.51297855 0.45521808 0.31516883 0.2591673 0.30822426 0.45528036 0.43362078 0.55234283 0.50817454 0.37852675 0.45199862 0.40860128 0.24110617 0.10389481 0.3147958 0.37087 0.46413422 0.4779282 0.020291358 0.3899118 0.14243047 0.43632102 0.117262095 0.30592608 0.14802954 0.22084284 0.25490242 -0.22973031 0.34869927 0.5429915 0.17331758 0.25412267 0.64615 0.15799873 0.74587935 0.66240156 0.61194587 0.36657298 0.086774155 0.18933016 -0.15488839 -0.12037158 -0.050223462 0.24446341 0.16664241 0.09576909 -0.09734103 0.0059353933 0.07959259 0.034550995 0.51553464 0.5493965 0.03309866 0.0973137 0.6044895 0.17021252 0.26021737 0.61619717 0.65674204 0.2798601 0.2577636 0.6914482 0.26327398 0.25882778 0.2275951 0.70191085 0.72039187 0.79135776 0.75101936 0.79564023 0.86758566 0.86166555 0.81176054 0.8988906 0.88803685 0.29974395 0.34848842 0.2777987 0.21513844 0.18920973 0.20426625 0.5116112 0.6366383 0.22210905 0.16464916 0.22436866 0.7014899 0.2684133 0.26596588 0.26790708 0.69503814 0.14949882 0.2649293 0.5346587 0.14526236 0.1398986 0.117436595 0.32363787 0.4162219 0.2754727 0.35726106 0.34188902 0.3925376 0.041116685 -0.0011016205 0.43015262 0.49606985 0.39669257 0.4954887 0.2648946 0.35229516 0.44336292 0.36103538 0.29980344 0.30516195 0.39950255 0.52599597 0.5179581 0.35028318 0.27517834 0.36159533 0.42982715 0.5718898 0.5742876 0.5793659 0.30724066 0.2922726 0.55650735 0.6714364 0.57541466 0.5810171 0.2771588 0.13515481 0.5739516 0.59942526 0.6003753 0.64284897 0.67409754 0.68554235 0.5554271 0.5078039 0.25234282 0.12166628 0.17292306 0.14109471 0.57801545 0.569317 0.5431926 0.5670098 0.6993046 0.73738444 0.69228876 0.48568755 0.44962096 0.3584992 0.29547405 -0.0011789352 0.10559662 0.089866236 0.08885399 0.54712784 0.6424124 0.73435825 0.74434936 0.37888983 0.18212044 0.25092822 0.6440344 0.7162287 0.7568917 0.19112742 0.33419552 0.3681302 0.57823986 0.52717817 0.35860464 0.35858762 0.4348212 0.43102944 0.61502206 0.5967207 0.5592787 0.36367485 0.43837586 0.5138643 0.49871194 0.63099706 0.6084854 0.5601466 0.6418661 0.633886 0.6175624 0.5834172 0.59680873 0.5719052 0.5595432 0.48806196 0.23245841 0.44978762 0.47983217 0.44906545 0.31041592 0.19253522 0.17747796 0.10204626 -0.23812857 -0.23379156 0.117403895 0.26482153 0.31161118 0.27704024 0.5779611 0.3757137 0.624211 0.028036509 0.37304044 0.32724285 0.42261708 0.34386143 0.08006159 0.33037376 0.42292857 0.36377043 0.16516548 0.31727928 0.39723796 0.3554128 0.28509003 0.14075397 0.057112545 0.37055326 0.32690415 0.25693008 -0.04932642 0.5334034 0.55283386 0.6159007 0.6257219 0.12653904 0.67141956 0.1066785 0.11536221 0.71058464 0.19947617 0.20604777 0.7439706 0.73437655 0.8754836 0.7826812 0.8795744 0.9231115 0.9088093 0.8380332 0.40090108 0.3805318 0.3721578 0.385467 0.37753043 0.40482202 0.4094286 0.37460798 0.65790075 0.62313706 0.5692464 0.33596686 0.34499884 0.3365223 0.3987251 0.34014988 0.59667015 0.5245435 0.49448696 0.25957263 0.28515163 0.22045396 0.58214957 0.62778914 0.40820354 0.4220773 0.37471718 0.107338175 0.02879583 0.17320888 0.59678507 0.6287205 0.3458513 0.3057006 0.28337768 0.26315776 0.21370536 0.1908222 0.090183 0.32337782 0.24281147 0.22367619 0.23550871 0.21174766 0.20118278 0.24968262 0.13828886 0.15984058 0.16882494 0.12683783 0.007319674 0.06791588 0.23963651 0.0812987 0.091932535 -0.040441796 -0.025216646 0.09192234 0.27303204 0.21999852 0.2141301 0.15445206 0.19543833 0.14996621 0.058913127 -0.06957292 -0.0820393 -0.07262379 -0.05725933 0.28569221 0.2597001 0.33691114 0.23566328 -0.09876487 -0.0776551 0.11021316 0.20003498 0.25481883 0.28437334 -0.10796012 0.0006474331 0.04911913 0.47391677 0.51108825 0.17386805 0.4382972 0.45161316 0.5430137 0.1258852 0.09297839 0.48868567 0.60192263 0.51181054 0.5065912 0.545703 0.5270599 -0.03998307 0.020210687 0.40521783 0.44022137 0.38730338 0.45720398 0.6398908 0.6163169 0.4829468 0.12142518 -0.0426531 0.4254463 0.5671679 0.7446857 0.70847964 0.36154082 0.13048396 0.19089822 0.19122048 0.58215284 0.703073 0.75450164 0.73581874 0.09555621 0.29809433 0.6867255 0.7379141 0.59104836 0.43344545 0.012654692 0.07279323 0.40882558 0.35142505 0.36587793 0.63660896 0.6296417 0.41142413 0.33977175 0.4774288 0.5134378 0.4376794 0.65567595 0.647352 0.6275103 0.5553334 0.35184154 0.50572705 0.54692703 0.5697548 0.54922354 0.6540072 0.6462797 0.61049926 0.5643838 0.6017395 0.64909583 0.66921407 0.62516534 0.48458984 0.5544153 0.5119189 0.42451382 0.4258087 0.43836826 0.29332247 0.29644498 0.38754642 0.21271603 0.25867257 0.25978762 0.13250962 0.056546673 0.037407964 -0.10158855 0.10885602 0.280676 0.29483438 0.30122262 0.29308286 -0.058555193 0.25042227 0.41067377 0.095655605 0.43241003 0.32921642 0.3368218 0.42234516 0.5658516 0.3739816 0.6392991 0.6406168 0.6599822 0.5675919 0.40528014 -0.1866129 0.6585677 0.6824138 0.684711 0.62964416 0.25167024 0.32345825 0.2063894 0.07043456 -0.031633504 0.6127319 0.6144148 0.60081446 0.20103374 0.25390285 0.16144356 0.028831847 -0.1544804 -0.0921099 0.429002 0.6147731 0.5300143 0.501019 0.12560092 0.13376616 0.15179415 0.0631988 -0.17569487 0.0112555735 0.5586033 0.6413971 0.12566422 -0.10681184 0.69614387 0.71115345 -0.103937946 0.033592902 0.20122197 0.8386626 0.7492423 0.20620963 0.2410944 0.3709848 0.84009546 0.8692616 0.8107824 0.36588573 0.5313088 0.47161287 0.45899364 0.49289817 0.4724602 0.4532604 0.31628084 0.3177794 0.26232845 0.25971562 0.21416469 0.3699783 0.35311314 0.34138614 0.30039558 0.2678353 0.18290167 0.88233066 0.8612714 0.7590128 0.63289696 0.51526046 0.3948493 0.26263434 0.14316119 0.44245112 0.5036681 0.8558808 0.79294324 0.67016685 0.55087864 0.47243917 -0.0051484257 0.08743149 0.27481624 0.40554944 0.5022675 0.6298559 0.7115951 0.76223004 0.75743246 0.6607079 0.3604426 0.22043917 0.08188847 0.06334084 0.2501114 0.31425756 0.4183068 0.534668 0.6528398 0.69234973 0.75541365 0.54261 0.44727942 0.32233998 0.026501492 0.10830055 0.13225308 0.110278815 0.14729598 0.34181935 0.43588662 0.5042115 0.5896123 0.62170327 0.6764325 0.7299383 0.37644535 0.3405787 0.09383137 -0.13793501 -0.092073515 -0.1714349 0.34943372 0.4337078 0.47221708 0.55319273 0.5934085 0.65549713 0.30830613 0.22233672 0.2104397 0.13137086 0.4542336 0.120628074 0.0925177 -0.03986409 -0.091884196 0.14018151 0.16598186 0.2099106 0.046251915 -0.043699626 0.11977974 0.22141412 0.2694691 -0.3511271 0.11028552 0.15914808 -0.21689492 0.3693105 0.39114264 0.40335312 0.4880037 -0.02060393 0.45939773 0.48461732 0.4735735 -0.034270972 -0.06069614 0.41071796 -0.022327024 0.5548629 0.19859743 -0.18603644 -0.112650745 0.2662859 0.6392194 0.15719736 0.04576137 0.40954024 0.4757102 0.7090094 0.16313401 0.08310523 0.15992358 0.12823097 0.24187028 0.47062916 0.6315731 0.7245585 0.373724 0.5497829 0.60845983 0.39673984 0.3662563 0.40781903 0.36511618 0.6221204 0.38868153 0.40739077 0.46805733 0.5543929 0.3904295 0.3951215 0.38253045 0.35651845 0.61964804 0.62175834 0.55733347 0.45779338 0.48568073 0.5460985 0.3537241 0.36202902 0.52568847 0.46072656 0.51649207 0.5988343 0.64666986 0.6320802 0.45425215 0.47731584 0.30305743 0.3998291 -0.029728718 0.25335217 0.33156425 0.31757885 0.19027528 0.103437446 0.13134941 0.1124451 -0.00036919117 0.19957238 0.19035913 0.22838399 -0.018911421 0.29947138 0.30430764 -0.24229378 0.3000937 0.30272844 0.29652184 0.15059769 -0.1262008 0.41873002 0.24796894 0.42658013 0.41590762 0.29437262 0.40188158 0.4054859 0.4627536 0.47293553 0.40493166 0.35332304 0.35382754 0.6789165 0.56183183 0.7240466 0.69336194 0.6017145 0.4160596 0.5994578 -0.09209197 -0.5154222 0.21218477 0.6745389 0.5952567 0.56119204 0.26249656 -0.1646561 -0.3463508 0.4749065 0.4821453 0.3807236 0.20777598 0.0068034213 0.10024666 0.049341775 -0.042163484 -0.053226903 0.23980641 0.0692976 0.09764091 0.10717614 0.06693834 0.025045544 0.016988251 -0.06803775 -0.16769783 0.0048808632 0.62473094 0.021954183 0.033675488 0.07476653 0.08885613 0.059710793 0.03642802 -0.034269754 -0.25344905 0.022621814 0.16523194 0.15318763 0.13580793 0.044508275 0.10308585 0.21243468 0.27817154 0.34516874 0.4087436 0.30984044 0.35316715 0.39782888 0.41712683 0.3759007 0.46003246 0.23131815 0.24028997 0.20007426 0.16054174 0.19661061 0.31646568 0.52433574 0.49523216 0.4702959 0.28674024 0.28246897 0.26778692 0.25570014 0.21047004 0.1932922 0.8449099 0.7706044 0.5578416 0.5296381 0.47329497 0.41173074 0.30536985 0.1403209 0.8312837 0.87069523 0.88079 0.79447496 0.629731 0.30964684 0.43132475 0.42548764 0.35702705 0.3412758 0.013765335 0.29710653 0.39849633 0.41942018 0.69949937 0.7485398 0.83606446 0.8589335 0.3701316 0.30756462 0.30560076 0.19467817 0.024407864 0.79034567 0.81575125 0.76378417 0.7931133 0.10891961 0.11884302 0.7840538 0.81009924 0.69112206 -0.022665448 -0.38098758 -0.013437116 -0.035516948 0.076804824 0.77562356 0.8139375 0.4750285 -0.064226225 -0.17333171 0.5214838 0.59405476 0.67502344 0.762326 0.039131388 -0.10590254 0.31124914 0.26253825 0.43576834 0.5062485 0.5549204 0.0011475384 0.053480834 0.016696293 0.1869626 0.02139566 -0.073374614 -0.4196396 0.022099294 -0.0039984547 0.21700819 0.15472312 0.0635971 0.06381308 0.1340836 0.037126113 0.2492979 0.21837825 0.30626124 0.34634122 0.40642166 0.40398404 0.43668252 0.33291364 0.49741936 -0.2326212 0.06463747 0.55794674 -0.08594385 -0.18401058 -0.023936369 -0.03260748 0.029718682 -0.09674634 0.06638845 0.54066813 -0.082605004 -0.13396624 0.20761041 0.17640737 0.6609676 0.25138032 -0.042724177 0.44053793 0.24628904 0.50946945 0.34823522 0.3168345 0.2428582 0.50585043 0.53844464 0.23764238 0.16142792 0.37894577 0.3198833 0.34504002 0.33599684 0.3311218 0.24989116 0.42720884 0.40752435 0.35538757 0.33062473 0.48372787 0.48985356 0.47770393 0.5781118 0.60250825 0.4396613 0.4372647 0.4720542 0.36864126 0.27704102 0.3257711 -0.059361607 0.259299 0.13761136 -0.13223262 0.26622108 0.20027897 0.29435918 0.26110375 0.252335 0.26859087 0.26176435 0.29919404 0.18386161 0.12719724 0.28923118 0.030330516 0.030776313 -0.114169255 0.25871986 0.2379906 0.14094044 -0.09021892 0.41212982 0.18324983 0.4031024 0.5207448 0.070430145 0.36789575 0.39080733 0.6150386 0.55076087 0.33393854 0.32002768 0.15296587 0.3042175 0.7117876 0.641065 0.55288315 0.31523305 0.74924755 0.7551154 0.51686656 0.3830325 0.7556806 0.6818781 0.50729436 0.16421786 0.48071796 0.701771 0.6265501 0.28359482 0.070579685 0.32597542 0.33583757 0.24262892 0.37800908 0.070324905 -0.058608457 -0.052546635 0.11533741 0.30242425 0.1783019 -0.115539 -0.037574075 -0.006708892 0.04278692 -0.111494966 -0.08956003 0.40545613 0.35827538 0.26339734 0.043323282 -0.013931508 0.07112518 0.115009725 0.12179356 0.22140303 0.19426052 0.061652943 -0.03983674 0.20988816 0.21276861 0.21032524 0.28612038 0.15995452 0.03551711 0.087786905 0.09034068 0.020635605 0.40163386 0.3833227 0.36185545 0.17611732 0.16134015 0.20875052 0.14751668 0.033678293 0.25371367 0.5032591 0.49311453 0.3315449 0.23964807 0.19036382 0.20136274 -0.24519819 0.81171775 0.4751793 0.18582806 -0.0817548 -0.18737224 0.8111347 0.81613564 0.6426202 0.25017884 0.17709392 0.17066371 0.7981975 0.7828994 0.7479167 0.23251861 0.25230882 0.8486698 0.7252426 0.69463325 0.032947503 0.09324964 0.08225462 0.84771115 0.53324276 -0.399921 -0.49008298 -0.12808275 -0.46443096 0.83374727 0.43637264 0.69398606 0.7611582 0.7945546 0.30282614 0.0050335526 0.3952989 0.5543324 0.45528352 0.42138314 0.300856 -0.08933884 -0.24744256 -0.07545141 0.39677128 0.33355057 0.25431663 -0.087532595 -0.014386202 0.29973137 0.29410702 -0.13083464 0.64956915 0.26380098 0.53002477 0.62488735 0.32719842 0.6143341 0.6735443 0.21863909 0.41636777 0.2569599 -0.0146763325 -0.045398116 -0.21588464 -0.17866221 0.35956684 -0.034568727 0.2129131 -0.20315257 -0.25925067 -0.1278804 0.13986851 -0.008104468 -0.15106653 0.3852055 0.2726093 0.36933535 0.5031538 0.30071074 0.29512727 0.07968312 0.12773904 0.32129455 0.47760898 0.5461918 0.34347403 0.0048281997 -0.06799641 0.0672712 0.15553105 0.23565744 0.14328554 0.14866841 0.17271912 0.48565984 0.3378899 0.31051192 0.06702101 -0.077325456 0.07362534 0.06987772 0.2990569 0.2791973 0.20792082 0.06133943 0.34247226 0.2570272 0.07825438 0.28468907 0.29260597 0.20223576 0.33029968 0.40940735 0.3289692 0.38075107 0.34269434 0.34256887 0.30616233 0.367173 0.30584466 0.46967274 0.4890923 0.5198092 0.51486635 0.5391396 0.61506355 0.6521833 0.64891446 0.36898124 0.624086 0.6151577 0.6134392 0.37185502 0.282874 0.24443445 0.52796793 0.5154836 0.38096887 0.27768564 0.24744932 0.20059341 0.118769586 0.20342699 0.35147995 0.38897645 0.18837991 0.16489205 0.37846243 0.23834404 0.35139912 0.24761876 0.19347678 0.14866835 0.2219153 0.120093 0.0844343 0.103275955 0.27434587 -0.3298041 0.3400156 -0.005384393 0.35247776 0.52097595 0.487581 0.42533797 -0.021006241 -0.17373347 0.26927826 0.5833856 0.5587033 0.16408062 0.07197571 0.04593752 0.2824267 0.66680384 0.66701496 0.41832465 0.711686 0.54562235 0.70507014 0.67625916 0.58644366 0.63123655 0.42572227 0.5019425 0.5484284 0.2553762 0.2690623 0.34490594 0.4043349 0.43054596 -0.037833355 -0.076402 0.124031976 -0.014376376 0.1524112 0.41631854 0.43331456 0.32391018 0.21456023 0.053329233 -0.07538307 0.07140912 0.15305206 0.3270863 0.13061062 -0.040836573 -0.04423113 0.10070953 0.14778873 0.10527071 0.12653515 0.1606506 0.2809542 0.038954943 0.020842806 0.04922035 0.13906975 0.15865989 0.1070955 0.0310205 0.2673464 0.22363187 0.27842405 0.2312957 0.11774227 0.09240624 0.07900669 0.08254707 -0.032409646 0.009828027 0.15675634 0.24044481 0.29395455 0.12934013 -0.0055933297 -0.09048679 -0.0997398 0.34915757 -0.07447253 -0.25168073 0.72916335 0.60216486 0.55715036 -0.16721731 -0.003140241 0.5386554 0.7691661 0.6730064 0.8880863 0.5361221 0.5030256 0.89292973 0.4470607 -0.48168206 0.8216291 0.4021162 0.63395834 0.69600946 0.792527 0.4954698 0.4534238 0.3480575 0.48237506 0.4572395 0.60244334 0.49479663 0.45616663 0.33333606 0.14485006 -0.2752982 -0.0841324 0.45568573 0.4715124 -0.16000408 0.4118278 0.0155642405 0.5436549 0.64417446 0.72924197 0.36933467 0.2703942 0.34794006 0.513217 0.703498 0.8003329 0.8131678 0.33298215 0.45777082 0.79882765 0.79009616 0.7178129 0.6787056 0.055211835 0.40652812 0.49368966 0.54795384 0.68016994 0.76205623 0.76356256 0.7037385 0.6359695 0.41868335 0.5652625 0.62657607 0.6677445 0.7022196 0.35760275 0.21441317 0.6069752 0.64313096 0.65882176 0.6660484 0.44309 0.13211237 0.3813789 0.17615256 0.12164846 0.13265744 0.4295904 0.56068957 0.56607723 0.23341843 -0.06169972 0.57392853 0.60006315 0.23629627 -0.09190017 0.5105928 0.5745876 0.59874547 0.26721996 0.33019924 -0.14833671 0.09272478 0.15298545 0.08605885 0.1256288 0.18668616 0.14360046 0.4131445 0.49418342 0.5456825 0.30940253 0.1730511 0.022678666 -0.04804676 0.1357668 0.012128644 0.2507036 0.31662005 0.3606983 0.2627669 0.33590648 0.3792251 0.38247803 0.20231265 0.27515495 0.32368806 0.38516834 0.24547358 0.35583192 0.19119057 0.31996703 0.45498145 0.45319998 0.28228205 0.44846243 0.47591138 0.52417505 0.5155748 0.49712884 0.46312493 0.53147215 0.5366684 0.5292363 0.49110258 0.5037996 0.49651065 0.63030005 0.6542684 0.6736682 0.65597147 0.14739908 0.48316598 0.3033741 0.32123882 0.64663935 0.44083172 0.17457227 0.28075907 0.35124025 0.2722