# vtk DataFile Version 2.0
Really cool data
ASCII
DATASET POLYDATA
POINTS 5310 float
38.221226 34.01404 50.66713
38.34741 33.837025 51.195103
38.31049 34.768417 50.065353
38.036694 34.49458 50.816917
38.12769 34.361176 51.251644
37.955975 35.520927 50.68056
37.913853 35.5684 51.229916
38.131622 35.34223 51.79369
38.069298 36.760735 50.242416
37.88978 36.52855 50.639717
37.85301 36.61572 51.333427
38.167873 36.47988 51.9144
38.47473 36.49661 58.484547
38.314632 37.054443 50.117672
38.087242 37.36105 50.71726
38.023945 37.347557 51.344147
38.202484 37.67124 51.031303
38.245785 37.735397 51.352924
39.151962 32.843494 50.491493
39.019756 33.115093 51.263073
38.79535 33.9249 49.91086
38.56659 33.551773 50.700615
38.565304 33.782715 51.4791
38.829693 33.803867 51.913395
38.574245 34.605526 49.74847
39.210297 35.167686 57.71692
39.2707 35.08947 58.461796
39.284145 35.22948 59.284184
38.952366 35.67942 49.550053
39.263165 35.646362 57.117096
38.79158 35.67598 57.796753
38.793407 35.660732 58.630287
38.947178 35.86551 59.430077
39.189342 35.97253 59.84765
38.665604 36.651787 52.31135
39.04241 36.488533 57.03954
38.515034 36.4144 57.877434
38.54695 36.61926 58.472363
38.736664 36.434685 59.36329
38.997757 36.58584 59.77028
38.63065 37.50128 50.141384
38.47409 37.660374 50.4486
38.332222 37.490883 51.86322
39.177433 37.62202 57.116283
38.787205 37.322514 57.679813
38.629333 37.218822 58.471024
38.84073 37.19813 59.298477
38.657997 37.970654 50.81206
38.73343 37.97543 51.356876
39.11664 37.970844 57.880177
38.998444 37.878216 58.272995
40.412384 31.77305 45.34285
39.802547 32.16865 50.710583
39.61915 32.29901 51.11458
40.35905 32.36748 45.096107
40.334446 32.45645 45.53521
40.44852 32.612526 46.273476
39.93717 32.70058 49.67688
39.45597 32.527878 50.50476
39.489613 32.55031 51.411324
39.446487 33.19828 52.06085
40.37119 33.10317 45.576874
40.454243 33.683907 46.782482
39.7673 34.58885 48.974155
40.075596 34.486797 52.679657
39.4914 35.09487 57.19618
39.55124 34.97658 57.502274
39.758236 34.806946 58.582752
39.961384 34.965218 59.47751
40.12499 35.6323 46.8
39.499893 35.511635 56.996136
39.350773 35.508957 59.54529
39.402912 35.752533 59.905556
40.277134 36.272858 46.17473
40.048824 36.806957 46.542286
39.79241 36.60101 47.44177
39.977806 36.835327 48.20295
39.51171 36.100563 52.751686
39.475628 36.798492 56.711517
39.76512 36.167477 60.417603
40.092888 37.376106 46.639603
39.872475 37.1941 47.526966
40.03538 37.32838 47.9819
39.579254 37.413437 52.34097
39.49451 37.557625 59.896942
40.366627 37.902138 46.70382
40.284554 38.067596 47.265785
39.577637 37.94128 50.032745
39.538185 38.201458 50.701843
39.351734 38.124863 51.325653
39.528084 37.81647 52.106567
39.712147 38.034668 57.1268
39.672825 38.489178 58.41213
39.39463 38.12686 59.265953
40.17381 38.426792 60.3156
40.25274 37.968983 60.710514
40.166534 39.004513 58.34934
40.16098 38.906105 59.500076
40.26456 38.73966 60.1879
40.915184 31.11424 44.922928
40.96898 31.023829 45.309868
41.17416 30.876717 46.059372
41.057045 31.388836 51.116104
41.037056 31.634914 44.29613
40.677578 31.677017 44.793392
40.600906 31.414717 45.45494
40.65038 31.736637 46.39369
41.2244 31.506363 46.832294
40.922146 31.642647 50.14097
40.735672 31.675611 51.113155
40.872444 31.861717 51.933548
41.318493 32.129593 53.065647
41.082397 32.549618 44.09898
40.574303 32.336094 44.685528
41.239555 32.42855 55.33986
41.034916 32.94197 44.205032
40.698616 33.405148 44.884193
40.59028 33.40244 45.856586
41.27118 33.59713 54.297466
41.225506 33.653927 55.391926
41.005558 34.10365 57.547268
41.122547 34.145405 60.16163
41.262882 34.248802 44.913975
40.271954 34.784122 57.29153
40.442112 34.69396 59.7216
40.394936 34.967537 60.33985
40.38476 35.47551 53.051556
40.69684 35.578484 56.749428
40.681103 35.78502 61.17385
40.573418 36.7544 45.713875
40.80831 36.271248 52.85367
41.02415 36.862007 63.529778
41.112453 36.81911 64.52862
41.326668 36.819614 64.86661
40.749916 37.300823 45.715054
40.087288 37.50604 52.377537
40.776127 36.955025 56.55481
40.621624 37.37329 61.268772
40.92114 37.217445 63.58161
40.93672 37.571953 64.33648
41.17305 37.700947 64.989525
40.926723 37.95004 45.95853
40.847477 38.36359 46.498783
40.55268 38.52608 47.621864
40.758865 38.214886 50.212055
40.425297 38.027287 51.820145
40.280144 38.49087 57.50177
40.48846 37.95775 60.873062
41.34974 38.35831 62.68616
41.03575 38.28949 63.797234
41.067104 38.138657 64.36809
41.108208 37.95504 64.85622
41.142303 38.94395 46.78376
41.05745 39.081062 47.42008
41.01134 39.00495 48.342728
40.697063 38.972042 57.743656
40.662346 39.36782 58.55262
40.616467 39.350716 59.386795
40.544918 39.07462 60.147236
40.99519 39.630016 58.738712
42.20929 30.053001 44.749386
41.88225 30.22454 45.291756
41.88757 30.350037 46.019398
42.10739 30.62791 44.167915
41.52299 30.626839 44.943287
41.54163 30.507832 45.294582
41.515957 30.792051 46.18031
41.63616 31.202473 50.64657
42.05532 31.031181 51.900063
41.987324 30.690748 52.861362
41.733673 30.961117 53.445084
42.0526 31.255714 54.94613
41.570538 31.558905 44.010506
41.608036 31.618923 47.41899
41.526997 31.836235 54.320347
41.7073 31.824005 55.464436
41.700813 32.03876 55.92581
41.72092 32.56273 43.693325
41.460144 32.301254 55.822784
41.675316 32.931465 56.710194
42.126896 32.827717 57.648705
42.39355 32.253223 61.22128
42.28203 33.278282 69.05727
41.68766 33.22675 43.80235
41.86503 33.44808 57.74224
42.176888 33.805725 62.264053
42.071556 34.18031 62.900745
42.26869 33.974174 68.04861
42.043137 33.777195 68.6112
42.08871 33.679634 69.34527
42.21754 33.910492 69.84859
41.480595 33.765663 44.26435
41.91306 34.2365 44.45993
41.47158 34.573742 61.715965
41.758602 34.475002 62.445053
42.07853 34.795918 63.251934
42.0794 34.2418 68.13477
41.738922 34.51447 68.791595
41.80246 34.506767 69.37499
42.090393 34.617054 69.92953
41.742527 35.575108 44.8766
41.66008 34.802715 55.287487
41.499687 35.844414 56.483646
41.513344 35.672382 62.433918
42.00593 35.394505 63.33851
41.791245 36.098507 64.27666
42.291855 35.276375 67.74126
41.77384 35.287468 68.64111
41.89098 35.46622 69.469475
42.11988 35.120403 69.96867
41.865887 36.38921 44.92106
41.990913 36.196014 53.21641
41.515614 36.41939 64.554276
41.6991 36.859367 65.20545
41.853504 35.808693 68.99224
42.095627 35.97336 69.319435
41.98888 37.640892 45.28061
41.230484 37.48236 45.40396
41.5311 37.733234 65.34558
41.944836 37.8628 45.406822
41.55974 38.227203 45.79185
41.847607 38.52757 50.018646
41.220036 38.06994 51.63237
41.7302 38.321438 57.067135
41.50339 38.694153 64.94212
42.310535 38.859528 65.72735
41.807953 38.95048 46.2427
41.734444 39.346878 46.7967
41.561615 39.467476 47.311428
41.62052 39.335052 48.499947
41.608112 39.14588 49.018974
41.5498 39.53562 58.128887
41.26025 39.526775 58.244236
41.408916 39.385216 60.24399
41.276455 39.040874 60.88806
41.96223 39.214474 62.53619
41.841957 39.385784 63.31765
41.83034 39.30975 64.68178
42.095913 39.338398 65.20921
41.886013 39.625137 47.055016
41.868942 39.619667 47.356987
41.585964 39.684082 58.64012
41.407738 39.73389 59.240173
42.225815 39.850464 64.38054
42.33274 39.751484 64.9668
43.445824 27.9472 49.045784
43.404472 29.041136 48.077473
42.895657 29.996828 44.12383
42.68675 29.887934 44.523777
42.777634 29.64866 45.27534
42.55888 30.024532 46.7954
42.742798 29.980324 48.49007
42.548725 30.303562 52.84604
42.73651 30.241585 53.178226
43.14878 30.001926 60.81396
43.005714 30.0835 61.48126
43.171608 30.075974 61.919518
42.689316 30.653616 43.8323
42.695328 30.585371 49.772568
42.631577 30.41494 51.768833
42.410683 30.516699 52.43248
42.502487 30.64067 54.37159
42.811993 31.036861 55.238667
43.21984 30.486973 60.001858
42.810116 30.724342 60.64791
42.82702 30.350159 61.33294
42.9758 30.38462 61.99743
43.104877 31.012413 62.73358
42.37147 31.553585 43.67165
42.568302 31.426222 56.22717
42.610157 31.891388 56.893852
43.03475 31.589254 59.6089
42.606483 31.15532 60.775635
42.583984 31.386448 61.341064
42.70617 31.87209 62.63506
42.98825 31.729511 63.065845
42.362137 32.406708 43.57739
42.531807 32.56219 58.2068
42.57738 32.450203 62.14802
42.774338 32.397987 63.294567
43.27113 32.391827 64.017715
43.04589 33.01371 68.13601
42.513382 33.143265 68.68929
42.721706 33.066273 69.31668
42.91355 33.18827 69.772415
42.252895 33.27967 43.65066
42.824394 33.308792 63.714165
43.063564 33.28187 63.848274
42.537956 33.59562 68.02972
42.420616 33.44115 69.65142
42.57686 33.67323 69.95387
42.92934 34.658283 44.032715
43.38984 34.390453 65.65018
43.29223 34.34014 66.47295
42.491127 34.590824 67.53598
42.70658 34.436893 70.331314
42.63162 35.16991 44.362762
42.38776 35.40906 44.668236
42.6395 36.003223 65.17319
42.770275 35.074867 67.069786
42.61813 35.495102 70.25238
43.222263 36.46478 54.32602
42.698936 36.62338 68.240685
42.59686 36.608387 69.65599
43.187878 36.304752 70.457924
43.202908 35.99838 70.60094
42.627174 37.123447 45.15118
42.804417 37.704567 45.477917
42.39522 37.114937 56.49839
42.89062 37.201485 66.77471
43.33071 37.647736 67.44096
42.930264 37.265697 69.30057
43.14866 37.135197 70.003174
42.166218 38.350376 45.852997
42.607338 38.228493 50.522583
42.356388 38.116703 51.460243
42.353374 38.70078 65.93943
43.278893 37.838707 68.88265
43.2503 37.81368 69.17152
42.12641 38.93785 46.19869
42.31227 39.4133 46.68404
42.60833 39.18011 49.135178
42.38428 38.74874 49.767406
42.345886 39.243767 58.07867
42.543415 39.341827 58.40803
42.82412 39.524345 59.549934
42.585434 39.484116 59.939835
42.61461 39.470966 65.65345
42.876694 39.486202 65.94801
42.440876 39.626522 46.969936
42.35767 39.682373 47.411045
42.241985 39.585213 48.198578
41.91682 39.595245 58.210865
42.289276 39.644558 58.781006
42.222286 39.679512 59.63345
42.7837 40.37354 62.70312
42.837143 40.38942 63.59438
42.732418 40.193146 64.445755
42.733097 39.938118 65.23463
43.006443 39.80555 65.76458
43.178604 40.638924 62.53057
43.18086 40.64852 63.028194
43.845627 26.981758 48.882603
44.054344 26.77138 49.432777
44.074886 26.963726 50.805412
44.102676 27.146818 51.460533
[...]
POINT_DATA 5310
SCALARS features_00 float 1
LOOKUP_TABLE default
0.49830964 0.47714773 0.5491174 0.5409974 0.5165165 0.63875693 0.66572535 0.6364472 0.6563945 0.70407903 0.7481405 0.79361165 0.7439402 0.6216426 0.6917382 0.7261898 0.69855726 0.7119868 0.3858788 0.4137588 0.47642577 0.45145026 0.46030205 0.44946384 0.52285266 0.64188117 0.59894407 0.5147581 0.45970017 0.6707438 0.7109922 0.6606852 0.57682866 0.5122682 0.8001009 0.7621269 0.77475333 0.7504703 0.64346975 0.58870405 0.61517227 0.6586238 0.7557888 0.7493862 0.77385676 0.75113523 0.6784165 0.66867507 0.6997901 0.69114935 0.6972984 0.6001756 0.3134546 0.3263767 0.60974896 0.59149635 0.54849434 0.3576028 0.3550348 0.34408176 0.38843602 0.5597328 0.35586596 0.3705426 0.49102205 0.6180396 0.59909034 0.5065184 0.40805513 0.33688533 0.6354475 0.4986896 0.46558812 0.48017603 0.49450493 0.41087162 0.35173112 0.56996584 0.76189005 0.41303402 0.51223856 0.450781 0.4155326 0.69562805 0.56198454 0.53896993 0.5241273 0.54201025 0.60868967 0.66507417 0.6996434 0.6645169 0.61494327 0.6084893 0.4974568 0.44043368 0.5883822 0.57459366 0.5226527 0.5809001 0.55716205 0.49023056 0.15084308 0.6294722 0.61845267 0.5794172 0.54687667 0.4626612 0.19248705 0.19800454 0.18127416 0.21565007 0.60985273 0.62070537 0.27777904 0.58533466 0.56456566 0.5188714 0.2407566 0.25958934 0.22507189 0.13384873 0.43253037 0.54878306 0.3087148 0.2730332 0.36401218 0.5775713 0.20971823 0.5137967 0.36029053 0.3832205 0.43149263 0.43489355 0.53201604 0.60467863 0.5684689 0.32328472 0.4531793 0.50574064 0.5085374 0.5504899 0.5592016 0.5384794 0.34026068 0.5426836 0.57337064 0.4097121 0.36355186 0.5165219 0.52044237 0.51523954 0.55888057 0.5616926 0.5306861 0.54482454 0.57167387 0.5850915 0.5424528 0.5500186 0.48959807 0.4822529 0.4234959 0.5409117 0.53424734 0.51066005 0.45196605 0.07520541 0.11614193 0.16637175 0.21681619 0.27245218 0.6237892 0.3229757 0.28559262 0.25337657 0.22917087 0.57525814 0.24211057 0.12964267 0.031653658 0.34808275 0.8116669 0.49476486 0.008230381 0.053016484 0.021871325 0.66091764 0.7896828 0.83208704 0.8018472 0.46455538 0.353131 0.014730185 0.002412114 0.009873316 0.6950208 0.8332006 0.8504538 0.79973954 0.27329564 -0.067862965 0.38053676 0.032583233 0.055663515 0.25173083 0.62477195 0.7978374 0.77007574 0.765372 0.33067745 0.12329979 0.34592447 0.425314 0.72288 0.67832196 0.43739116 0.49982974 0.4808666 0.466556 0.5302839 0.2502131 0.33560264 0.44406033 0.48481375 0.3749218 0.54026175 0.552001 0.55746424 0.5247759 0.43594205 0.50586927 0.5287318 0.5553471 0.43370193 0.34619915 0.45665705 0.46512723 0.4260121 0.5512511 0.5506096 0.50188583 0.52819633 0.4433195 0.4247772 0.28632393 0.1642051 0.47342184 0.46969712 0.4085873 0.2285402 -0.053074483 0.15029705 0.16300151 0.5810319 0.57372445 0.5556114 0.5167478 -0.084670946 0.0511548 0.13309573 0.27359986 0.24804832 0.53156996 0.5392017 0.5618459 0.53583694 0.4195342 0.5846761 0.20344733 0.14189477 0.34041762 0.5037652 0.4797861 0.30736408 0.29013395 0.53510666 -0.025870819 0.24814424 0.17461604 0.1499471 0.66355145 0.7762854 0.7900249 0.7518368 0.41565293 0.0713397 0.06887142 0.6502917 0.79898524 0.7671296 0.2302848 -0.15624002 0.13369063 0.5189398 0.72614574 0.22724676 0.23597233 0.12479261 0.34612715 0.6982127 -0.011832617 0.43547207 0.60053253 0.64863265 0.6587311 0.31330055 0.35823983 0.16683435 0.19804789 0.22984101 0.5060029 0.5949334 0.49428493 0.19226797 0.13794057 0.34995395 0.43012184 0.47161224 0.523062 0.53491855 0.39146876 0.2882424 0.4087152 0.37919825 0.32957715 0.36376745 0.38349766 0.3615486 0.5402215 0.5364522 0.518872 0.47504562 0.43270662 0.4415428 0.4025483 0.4330461 0.43033242 0.4038282 0.37315404 0.39756313 0.4234073 0.38134083 0.4128315 0.35766333 0.3208558 0.22202544 0.26920202 0.30933842 0.32328892 0.3335678 0.31277663 0.28792387 0.3972866 0.36515158 0.16553071 0.2465155 0.23715149 0.1773247 0.22597156 0.5579512 0.44257367 0.43269777 0.105263025 0.5246515 0.57672274 0.5671269 0.5380602 0.4624564 0.041627288 0.49493265 0.43713784 0.20409441 0.11117545 0.07458685 0.027551837 0.54494303 0.7311644 0.74418104 0.6924403 0.2705876 -0.010479383 0.011202052 0.44344622 0.6681174 0.65130615 0.15013742 0.6711633 0.64071095 0.1859227 0.6572201 0.18778104 0.6651318 0.20398718 0.16729823 0.1316646 0.62956524 0.6766062 0.44805932 0.33452967 0.34517217 0.30814052 0.16316459 0.28769344 0.30886212 0.5073701 0.56481886 0.5346911 0.43034977 0.31042588 0.38158822 0.2557879 0.2532518 0.30669713 0.23263347 0.5093597 0.2948712 0.41042364 0.39041623 0.35303998 0.36843282 0.4113357 0.42653868 0.4170114 0.6116793 0.61358863 0.584257 0.53481567 0.4212625 0.46415687 0.37373257 0.32629293 0.29302108 0.3305373 0.24526821 0.16070163 0.29948133 0.21174924 0.17310461 0.09677858 0.5466961 0.5204365 0.4942929 0.31677037 -0.011542432 -0.050221335 0.53138864 0.5484947 0.4549055 0.38435024 0.37189648 0.3496816 0.25262168 0.17103957 0.16830465 0.6865671 0.6112082 0.14390138 0.15332878 0.59159696 0.6080404 0.4566226 0.58163774 0.58896035 0.5976206 0.13408685 0.65370655 0.06589913 0.67851675 0.103465974 0.68529606 0.15277353 0.40005672 0.5187285 0.6264634 0.44682908 0.35765147 0.3631559 0.29590863 0.3724283 0.38294566 0.3449721 0.29723942 0.25748798 0.13645974 -0.08362366 -0.06722387 0.17944504 0.4503177 0.28767785 0.33320135 0.36656523 0.41122675 0.43287262 0.41617054 0.6628053 0.64600265 0.5968699 0.5242765 0.59508765 0.63726926 0.51883864 0.4847859 0.321863 0.5504153 0.2813912 0.36631453 0.39557964 0.38928032 0.2979094 0.36383793 0.18160664 0.45290077 0.4578337 0.26315743 -0.0078815445 0.024217881 0.46407712 0.41184354 0.2894696 0.21500278 0.61734414 0.1967025 0.80550945 0.8054273 0.17253146 0.4960484 0.6920359 0.62402236 0.54398704 0.5958623 0.49416196 0.5238943 0.56136227 0.5735282 0.63005483 0.14438806 0.60312647 0.6427077 0.19966832 0.1287774 0.48376572 0.6008933 0.27823132 0.15155455 0.15604651 0.29054394 0.29220706 0.26319477 0.18517254 -0.014106814 -0.15552978 0.3012694 0.20369534 0.3132276 0.18209162 0.10895105 0.3432368 0.4020277 0.42968133 0.35968858 0.3116158 0.67620707 0.6838881 0.6560462 0.56809175 0.6289251 0.65419877 0.23605452 0.50457263 0.5706295 0.54009783 0.59409845 0.5023963 0.49486434 0.3854412 0.3329022 0.13402829 0.13558415 0.30917102 0.48072058 0.36988175 0.15148708 0.25987297 0.17949572 0.20785517 0.7363021 0.6863513 0.32440132 0.8021294 0.21084362 0.2450317 0.8481568 0.3493139 0.421565 0.76968634 0.70250607 0.49773136 0.6468227 0.47479838 0.38090748 0.44478822 0.5352672 0.51199305 0.5797066 0.26393217 0.2852495 -0.4684127 -0.4088496 0.57080674 0.34118354 -0.29406482 -0.20819914 -0.28461844 0.34518933 0.5053653 0.43136722 0.08935205 0.099436864 -0.0024793185 -0.23960875 -0.17811416 0.050089244 0.26558828 0.36930048 0.5415449 0.4880527 0.42963243 0.20039558 0.21258914 0.33530998 0.34958875 0.37463444 0.34375805 0.68250644 0.70926607 0.68771183 0.62284994 0.6245527 0.65927637 0.49540788 0.4588086 0.5587567 0.59362686 0.55680144 0.5689627 0.5364088 0.49045634 0.39098588 0.19694465 0.11935681 0.3050051 0.31814516 0.38365492 0.42556706 0.52071923 0.44284225 0.26435181 0.25239486 0.30051517 0.35260332 0.40137148 0.46759143 0.46894252 0.61852604 0.5481338 -0.15513459 0.41354036 0.42047983 0.78162026 0.6989507 0.36794242 0.82749 0.24325873 0.7868518 0.7609086 0.011812471 0.6142659 0.5472411 0.25332785 0.3440531 0.031566616 0.2669035 0.28633904 0.024033457 0.331908 0.401935 0.39186364 -0.4449375 -0.31326374 -0.3952937 0.50421613 0.31553382 -0.1589365 -0.01091557 0.54161227 0.50540006 0.43444404 0.35989285 0.22341567 0.28645974 0.29871398 0.24224027 0.17617884 0.24199179 0.05343969 0.2977179 0.29406646 0.26487088 0.28111678 0.67601836 0.6382867 0.5841851 0.66647065 0.6708139 0.6326783 0.57628244 0.35060817 0.5643905 0.6078469 0.56782866 0.6198344 0.517219 0.39407855 0.23686063 0.28677315 0.22536004 0.29306442 0.26550284 0.40157056 0.45102435 0.47655022 0.48427713 -0.16943845 0.09841282 0.25841475 0.36072698 0.4984108 0.47756287 0.44314456 0.60025954 0.56447905 0.48073357 0.013980699 -0.1782631 0.40872818 0.66630095 0.59256786 0.3588948 0.6795175 0.59902024 0.07454786 0.64834523 0.5630114 -0.11869326 0.48233423 0.1449044 -0.109612025 0.10467338 0.3098578 0.30405113 0.34416565 0.3897793 0.4115921 -0.45933872 -0.43930876 0.16124071 0.24664295 0.47910863 0.5143702 0.26070747 0.1882869 0.07494616 0.15527058 -0.19307512 -0.42258653 -0.13561106 -0.058105193 0.098937325 0.51995367 0.5011637 0.4083999 0.34613186 0.27170587 0.048068333 0.04250709 0.10882082 -0.10302089 -0.0966625 0.28575248 0.2858872 0.19977446 0.1416109 0.5329893 0.54284835 0.5833104 0.7014391 0.7181934 0.60780156 0.70156235 0.5695234 0.5346383 0.568159 0.54439306 0.63031393 0.5865541 0.566386 0.54572165 0.59389234 0.53984725 0.5973506 0.54024863 0.36009812 0.31358936 0.49774432 0.44864658 0.44051087 0.36776975 0.260843 0.21149772 -0.23647884 0.14176875 0.26529855 0.23809165 0.41742814 -0.038698092 0.013280567 -0.16591431 0.31396848 0.37768137 0.45896 0.48465067 0.452271 0.42987698 0.5444076 0.52126706 0.13412806 -0.12129831 0.035725288 0.42137074 0.56292534 0.512291 0.050381947 0.33323276 0.5188669 -0.022237144 -0.30824587 0.09728163 -0.27877036 0.15749238 0.116594404 -0.19983082 0.07543294 0.39278954 0.36508435 0.3887843 0.39972895 0.23129416 0.32113898 0.44127154 0.4758516 -0.16135687 0.0056518 -0.071340576 -0.33092135 -0.30540255 0.10034864 0.17133535 0.42683125 0.33734414 0.32375017 0.21361887 0.2134957 0.080459714 0.05698002 -0.06486647 0.08455765 -0.009207758 -0.028095396 0.23019794 0.055766325 0.04976961 0.09697374 -0.13977247 0.063468456 -0.09188488 0.002695784 0.026820682 0.13397536 0.41188264 0.35646874 0.49469653 0.013741851 0.037777305 0.5093038 0.5578749 0.5533594 0.46865332 0.6804031 0.69477296 0.6837332 0.55887437 0.56942266 0.55487514 0.4350878 0.49078006 0.710533 0.6947843 0.55609685 0.5622994 0.44468907 0.542676 0.7186568 0.7022784 0.4732346 0.5589962 0.6566801 0.6735617 0.49261516 0.5368643 0.50146043 0.5743834 0.5521239 0.49590668 0.41599452 0.704874 0.64148575 0.56384754 0.5035965 0.45039108 0.7281691 0.6948998 0.58896613 0.5050595 0.44837868 0.70198894 0.6785573 0.6176436 0.52514327 0.49915898 0.51657 0.26972783 0.4442912 0.57827413 0.35583887 0.2485553 0.18865225 0.16528343 0.1604728 -0.15390214 0.40995687 -0.2589699 0.1353238 0.22826788 0.23283282 0.36304373 0.27667692 0.26769555 0.28518796 0.15100506 -0.2890082 0.2158497 -0.09429415 0.10174873 0.26627982 0.36007142 0.41444236 0.34216142 0.22247732 0.28113592 0.31884196 0.10270925 0.1811318 0.27931002 0.17958607 0.12548316 -0.20933942 0.066873156 0.16789182 0.06996101 -0.0834185 -0.056564625 -0.027991582 -0.09136239 -0.12331102 0.41774994 0.29001647 -0.056073517 -0.09870124 0.3690015 0.47556418 0.46560133 0.17184705 0.57725215 0.62432957 0.4236569 0.49585038 0.54298127 0.4946531 0.009612672 0.08105248 0.6241428 0.51319414 0.5349399 0.540396 0.52006024 0.14825052 0.20367897 0.65868396 0.39360717 0.31905937 0.35284358 0.30653584 0.22793466 0.1702673 0.5974132 0.56101215 0.45093757 0.42950863 0.36911812 0.20734596 -0.08633256 0.29678464 0.36780122 0.4435439 0.49661857 0.43191403 0.3525722 0.26629597 0.06827027 0.14645344 0.3917607 0.24844387 0.5877843 0.30645478 0.6872065 0.2638823 0.19884263 0.70470124 0.34522048 0.2702527 0.66272914 0.64420754 0.55237 0.43958452 0.31482974 0.27010915 0.41288573 0.54616463 0.577229 0.45851314 0.35120425 0.27141786 0.46713328 0.59438825 0.6378675 0.65154207 0.5664919 0.6459527 0.6899214 0.69512296 0.573921 0.66666406 0.6888902 0.7116399 0.39506972 0.4737296 0.52445835 0.2923672 0.4523248 0.49005902 0.54487824 0.15233651 0.1570791 0.48300517 0.23729971 0.4766629 0.5137011 0.42896286 0.19684452 0.21849228 0.28637078 0.2810397 0.13099994 0.15366997 0.33579785 -0.059458956 -0.19654661 0.093568236 0.15157443 0.2133084 0.31531063 0.34651744 0.20582975 0.33707833 0.3094588 0.51906836 0.15198654 0.5684229 0.47758162 0.045266077 0.46813244 0.34050608 0.38796252 0.52900004 0.3932888 0.47051352 0.46024224 0.4673587 0.388887 0.38110808 0.2363221 0.3500505 0.07853524 0.39274675 0.43066034 0.24807838 0.103931144 0.010118194 0.35639358 0.19642447 -0.13683565 0.08982381 0.081700265 -0.075004965 -0.054259945 -0.10964716 0.26312363 -0.1882633 -0.16614415 0.36513054 0.48073 0.37947646 0.45901418 -0.023989633 -0.03427454 -0.1354657 0.037872277 0.4113155 0.4678685 0.46419704 0.12140828 0.06537915 0.5727389 0.4080876 0.47836146 0.40458077 0.25561377 0.3667161 0.03475001 0.5121959 0.43153334 0.1358513 0.39477348 0.4340254 0.46973234 0.35714164 0.34017104 0.1780197 0.15998298 0.65171564 0.14046118 0.62783176 0.29800653 0.5857971 0.45456237 0.48912555 0.5485524 0.5054806 0.18278778 0.25721422 0.60197616 0.22579661 0.69389105 0.51955557 0.6178913 0.6964849 0.7057228 0.49209407 0.61241674 0.6572535 0.45354044 0.5666143 0.15241402 0.4097185 0.47357494 0.3475607 0.44363028 0.45006222 0.3957116 0.21957174 0.19381186 0.078499846 0.124849945 0.18277973 0.2015137 -0.055820722 0.09627509 0.14507008 0.3260469 0.348866 0.3072018 -0.3472854 -0.12412162 -0.32332122 0.3552963 0.34268412 0.577116 0.40991902 0.2301813 0.6303693 0.17074428 0.2653774 0.6487155 0.33260208 0.42280194 0.6367663 0.48293367 0.52800906 0.46693155 0.10695319 0.09928848 0.3531782 0.19785269 0.4172617 0.10661697 0.4712943 0.011748174 0.4695182 0.45368695 0.35617545 -0.037470266 0.106647454 0.1652024 -0.02347523 0.20913072 0.21616858 0.28465104 0.27702308 0.30174628 0.33090663 0.36890453 0.32725838 0.3272035 0.31123054 0.20268479 0.2951316 0.29808068 0.37684456 0.3083009 0.29099092 0.20896399 0.20617896 0.4088201 -0.04878255 0.06956352 0.371247 0.05498688 0.16485582 0.20240049 0.4195434 0.1853638 0.05554214 0.25168738 0.5212106 0.48722693 0.15246025 0.09052178 0.07008327 0.59138656 0.17037213 0.23198256 0.64550096 0.576194 0.3993775 0.5286188 0.6395713 0.6103353 0.36135125 0.4095646 0.5013692 0.44657415 0.41805694 0.33407497 0.3837912 0.18962109 0.13481058 0.12794137 0.19236708 0.15166618 0.17238092 -0.0924871 -0.2396638 -0.25402942 -0.034301803 0.051260136 0.060903106 0.11591249 0.26047474 0.33604842 0.39326873 0.2857396 0.07512383 0.005642605 -0.26398814 -0.2725981 -0.2750512 -0.20232438 0.31377953 0.6113857 0.5661093 0.5145224 0.22218212 0.22826666 0.6577506 0.64920115 0.22959593 0.66188866 0.36810154 0.64252853 0.5959481 0.4540174 0.53195345 0.27187043 0.44613698 0.19097173 0.3632905 0.256929 0.11521057 0.36045304 0.40138343 0.050185665 0.46640936 -0.026157847 0.25803712 0.48373002 0.47203547 0.41697103 0.13351366 0.13083197 0.15915342 0.21620399 0.08474383 0.25852668 0.18042487 0.23284453 0.26484555 0.14165641 0.23132944 0.10172031 0.060700607 0.2228388 0.18157697 0.23845303 0.039000012 0.22507617 -0.33793885 0.17629626 0.33268782 0.13700856 0.4633643 0.41483027 0.37383175 0.34187135 0.29435882 0.51576215 0.4379326 0.3263254 0.19249071 0.43160558 0.54913354 0.40541095 0.26321298 0.14563201 0.116991654 -0.06874731 0.49292278 0.6220013 0.51507324 0.3876983 0.3361395 0.27879447 0.23642342 0.03805556 0.048341043 0.17809446 0.55288243 0.584968 0.5852347 0.52392787 0.2480776 0.3614875 0.46411115 0.5602403 0.529331 0.48585707 0.34816408 0.32056683 0.32125348 0.29341087 0.32095945 0.12142517 0.15804985 0.20666717 0.06016231 0.19772294 0.1458486 0.115554914 -0.11268375 -0.06593956 -0.16821498 0.101071924 0.21015677 0.45073062 0.28007495 0.13511977 -0.059144564 -0.052842345 0.3194644 0.33671045 0.6207117 0.55011743 0.4224806 0.2336066 0.27857953 0.66228783 0.66064674 0.22574681 0.6536225 0.648268 0.63752204 0.5965126 0.53401095 0.39376637 0.40047652 0.5000326 0.41786855 0.30389836 0.1058919 0.29410976 0.29316154 0.2737069 0.04498907 0.22434479 0.3517648 0.32569364 -0.07969622 0.4412377 0.26991266 0.28337526 0.2779125 0.2806596 0.41464686 -0.17978111 0.33975515 0.31801534 0.051036928 0.20661452 0.311139 0.34744373 0.3460511 0.07722476 0.175574 0.29653323 0.30780953 0.27916452 0.040220477 0.32972208 0.30488715 -0.1262318 0.12385186 -0.18912576 -0.14923975 0.21128103 0.26768026 0.29842207 -0.29693466 0.30123478 -0.34214348 0.20895642 -0.24053164 0.024138369 0.46272552 0.34381473 0.26742816 0.5275146 0.4748476 0.5818368 0.6519112 0.6182625 0.40116572 0.68961036 0.64293736 0.03353847 0.43222207 0.7146787 0.68523663 0.6563508 0.6190429 0.38055685 0.30368334 0.1517142 0.27630782 0.3485262 0.4770586 0.4060648 0.6909138 0.67877305 0.6680243 0.5817443 0.48096362 0.47425145 0.51601094 0.48019418 0.4243657 0.20516686 0.16620293 0.17310098 0.22387527 0.13385628 0.123273715 0.17821151 0.21067569 0.43524024 0.42919666 0.37010932 0.2037686 0.2749846 0.18591316 0.13697228 0.054188803 -0.042974792 0.08405234 0.20936044 0.037075944 0.21985197 0.5632528 0.45465603 0.24324483 0.051790737 0.27972382 0.6591215 0.6558743 0.6479212 0.23199147 0.57433 0.6198544 0.6333872 0.6033098 0.5070442 0.009804547 0.14531815 0.49375665 0.5629927 0.5748193 0.44818088 0.20619315 0.10149731 0.23576057 0.2232146 0.23514007 0.08541783 0.20398483 0.21714465 -0.14586219 0.2759031 -0.299817 0.290711 -0.07866471 0.32595468 0.089644775 0.24933282 0.23793337 0.2649182 0.30724925 -0.37292 -0.24493827 0.30039987 0.31921807 -0.13798973 -0.45714504 0.032482244 0.28382626 0.3053666 0.29378122 0.22898349 -0.2360009 -0.18049839 0.29135904 0.23862936 -0.22256762 0.32068652 -0.27371085 0.35249925 -0.31607655 0.22100574 -0.007797271 0.14968021 0.36838442 0.041569896 -0.026127227 0.5322101 0.5772832 0.6966384 0.69194925 0.44437784 0.79003745 0.32222944 0.77001643 0.74349785 0.22560579 -0.021168545 0.1268451 0.21718605 0.3182789 0.42674148 0.41889542 0.36091688 0.73043215 0.7163397 0.6722746 0.6200622 0.35861272 0.45497954 0.70610726 0.69080853 0.08543925 0.13071601 0.08633135 0.468431 0.4111107 0.22093815 -0.0069906525 0.03853779 0.18787971 0.20711434 0.43515888 0.22155757 0.20331076 0.14337704 0.26314646 0.15661715 0.15238674 0.075537436 0.069035426 0.36086702 0.3094448 0.50450015 0.6169721 0.1825068 0.18062845 -0.034407727 0.26919407 0.3413682 0.28934297 0.40668428 0.5404882 0.6371196 0.6725317 0.4357043 0.61150295 0.65750146 0.6818892 0.43887684 0.02140683 0.19574706 0.48271263 0.611572 0.6363931 -0.04371889 -0.03556183 0.5315781 0.57834584 -0.099471524 -0.0052604647 0.31706992 0.0046562776 -0.059513006 0.11126919 0.122042194 0.10887908 0.18216452 -0.17134975 0.21905461 -0.37198144 0.18692435 -0.17149934 0.13083196 0.097225145 0.10386174 -0.13785154 0.21422254 0.12629762 0.15355071 0.26159182 0.28515714 0.24967146 -0.40430766 -0.39748657 0.03327898 0.20092422 0.26018003 -0.12872867 -0.5287968 0.15906656 0.3448621 0.13367984 0.13349387 0.14893666 0.06835808 0.1996545 0.129899 -0.28211772 -0.31392777 0.3374455 0.30361706 0.2633231 0.15831153 0.15501961 0.14481363 0.041093238 -0.051531732 -0.29657656 0.1788195 0.44527072 0.39682662 0.30027276 0.18067501 0.03913643 -0.23983131 0.08473455 0.45451194 0.07389398 0.46236596 0.3508149 0.512287 0.5215659 0.56009996 0.6250493 0.71430093 0.6637508 0.69803536 0.7641466 0.4146539 0.60576725 0.6534308 0.79822767 0.7810093 -0.16066915 -0.11169331 0.112279266 0.36858436 0.76825404 0.7314035 0.6654232 0.624944 0.5472305 0.6795292 0.4672079 0.48656607 0.5482407 0.47099715 0.48191267 0.46675214 0.58122987 0.6186958 0.6394052 0.50730324 0.5395707 0.5911591 0.597422 0.4359029 0.44099638 0.42554253 0.5267519 0.009054348 -0.010204591 0.054695465 0.12548333 0.43920916 0.3828416 0.23635599 0.006838452 0.18276796 0.37274653 0.18032543 0.38114083 0.38759142 0.19547127 0.15458727 0.3119483 0.37255442 0.35986802 0.35132602 0.50722826 0.617244 0.12436211 0.057025343 0.29205662 0.28578573 0.48220205 0.6041288 0.6706042 0.19501533 -0.33644938 0.6946299 0.6914836 -0.36381125 0.6678067 0.64825046 0.1367463 0.58340937 0.5848026 0.52624863 0.03244564 0.41313916 0.020308122 -0.32511234 0.10956213 0.18413338 0.03565844 0.035609134 0.20297146 0.19215226 0.28006917 0.32606813 -0.16106811 0.32263285 0.34506342 0.13480987 0.29687142 -0.271787 0.13325806 0.20877984 0.01724774 0.052413896 0.03303289 0.1376664 0.13869086 0.10125505 0.6112268 0.21674137 0.23774934 0.66184807 0.17948338