# vtk DataFile Version 2.0
Really cool data
ASCII
DATASET POLYDATA
POINTS 5503 float
29.470041 12.035512 81.96851
29.463137 12.072969 82.34837
29.409647 12.235528 81.835365
29.420351 12.467068 82.45683
29.448608 12.579368 82.91894
29.452072 12.982753 82.71573
30.121407 11.168258 80.890755
30.053667 11.119508 81.5327
30.058369 11.125366 82.42578
30.22096 11.134678 82.986015
30.092886 11.939213 80.14413
29.902586 11.636405 80.680595
29.63572 11.772216 81.47353
29.702356 11.598814 82.34358
30.000584 11.735029 83.26645
30.107306 11.971779 83.63682
30.127983 12.238499 80.07723
29.777016 12.4022045 80.663025
29.5426 12.421321 81.337654
29.474558 12.232142 82.78313
29.66287 12.54099 83.26715
30.121983 12.730193 83.788185
30.216991 12.799047 80.17315
29.996634 13.129905 80.82697
29.661652 13.05396 81.56124
29.610128 13.210434 82.486336
29.858986 13.255144 83.23168
30.170872 13.22112 83.660736
30.131817 13.656207 81.70302
30.010416 13.752008 82.495895
30.000435 13.619377 82.969666
31.071844 10.35722 81.66388
31.028952 10.334354 82.35101
31.232344 10.216745 82.98004
30.654404 11.223971 80.165886
30.497217 11.0047035 80.70435
30.583508 10.748306 81.3399
30.61175 10.628412 82.36702
30.805632 10.781914 83.21949
30.478968 11.768736 79.913284
30.297356 11.397004 83.445595
30.762749 11.677122 83.836845
30.478645 12.402456 79.921555
30.498798 12.544892 83.90153
30.924597 13.341317 80.16734
30.501848 13.421406 80.44527
30.530891 13.241581 83.74253
31.05712 13.928203 80.96094
30.769115 13.985549 81.23368
30.559092 14.022291 82.75596
30.324179 13.797446 83.167145
31.37095 19.019066 86.87233
31.43235 18.824766 87.33072
31.366165 19.43698 86.86357
31.397444 19.30513 87.410805
31.431095 20.929262 77.89411
31.441305 20.834139 78.480576
31.43002 21.1967 77.99921
31.424538 21.384686 78.24449
31.796432 10.158661 81.397446
31.647783 10.015395 82.568535
31.641302 10.125028 83.14264
31.403246 10.771969 80.59391
31.425303 10.465372 83.49416
31.785332 10.770703 83.91355
32.380054 11.441299 78.03427
32.35273 11.48197 78.492516
31.2962 11.808687 79.53714
31.768017 11.389628 84.15561
32.00564 12.477831 84.41377
32.398033 13.583993 78.5374
31.961805 13.378402 84.26196
31.878603 14.425157 80.261566
32.00484 15.130611 82.44159
32.281 15.284239 83.42425
31.681917 18.334415 86.8632
31.929548 18.165268 87.38351
32.3514 19.149172 78.50407
32.34379 19.239101 78.93881
32.0502 19.17813 84.6505
32.241676 18.566727 85.67527
31.593317 18.528748 86.770134
31.575605 18.691166 87.5754
31.830172 18.743956 88.05222
32.02915 19.896124 77.62842
31.830603 19.869776 78.42759
31.91238 19.895945 79.19568
32.33006 19.507847 83.71534
31.67774 19.722837 85.00148
31.569592 19.537514 85.584206
31.493462 19.65081 86.18464
31.534355 19.546015 87.58467
31.829254 19.439507 88.13982
32.314213 19.421833 88.69205
31.975721 20.771896 77.004196
31.632257 20.720928 77.59253
31.667103 20.381657 78.33049
31.634386 20.590073 79.400894
32.00864 20.823975 80.271416
31.878233 20.131468 84.63451
31.710342 20.35368 85.75377
31.638737 20.182339 86.60309
31.82542 20.222004 87.36441
31.933838 19.992313 88.053856
31.943192 21.500383 77.128075
31.590498 21.404612 77.61354
31.515026 21.356512 78.129616
31.604422 21.516573 79.42317
31.886263 21.057 79.981346
32.42456 21.895811 80.9235
32.394474 20.977629 84.29255
32.205494 21.082958 85.30646
32.176136 20.847408 86.83288
32.134243 20.668213 87.10272
32.238068 22.752203 77.15169
31.801968 22.379654 77.582146
31.636593 22.527725 78.38049
31.674 22.213882 79.39711
32.02386 22.14289 80.14429
32.27227 22.085949 80.80156
32.10614 23.454906 77.30531
31.87873 23.514057 77.76761
31.669247 23.502975 78.50099
31.774595 23.54398 79.35986
32.133507 23.476698 80.19617
32.153427 24.03803 77.76635
31.991852 24.095331 78.46371
31.974226 24.070301 79.17838
31.993452 23.902994 79.8226
33.355743 10.04602 76.916695
33.259666 9.934139 77.5141
32.96794 10.22064 78.19644
32.114033 10.195927 81.03052
32.544 9.943697 82.45643
32.346905 10.055215 83.20353
33.161346 10.56434 76.81188
32.87338 10.588739 77.34157
32.78712 10.527244 78.60314
32.724262 10.975769 79.52058
32.561157 10.736094 84.006226
33.36019 11.345131 76.12392
32.856663 11.546867 77.027725
32.615253 11.489284 77.56218
32.492615 11.417816 84.336075
33.12436 12.01194 76.775734
32.618828 12.798008 78.029854
32.92662 12.158211 84.70097
33.030014 13.350083 77.83625
32.562126 13.891663 78.480156
32.24565 13.639417 84.400826
32.540375 13.220668 84.61394
33.132603 14.406968 78.020546
32.67899 14.5367 78.37231
32.268345 13.967897 84.30661
33.211163 15.24242 78.123795
33.078526 14.892862 78.32895
32.911076 15.505708 79.114555
33.265274 17.188025 75.48015
33.015614 17.119991 76.83992
32.917732 17.137297 77.282486
33.101162 16.65675 78.44539
33.058178 16.589571 81.713326
32.6407 15.97862 82.42241
33.247124 17.589275 75.067245
33.11749 17.59737 75.492134
32.999752 17.502329 76.4874
32.735085 17.505249 77.694565
32.72437 17.631874 78.3441
33.076435 17.488417 79.09661
33.339714 17.509058 81.74944
33.42808 17.211945 83.83801
32.405003 17.988186 87.50152
32.81807 18.153107 88.43047
33.111507 18.28813 88.949745
33.293503 18.072374 75.06424
33.18991 18.3604 75.52921
33.30694 18.459871 80.947464
33.058216 18.922838 81.38386
33.244083 18.178886 82.97565
32.859325 18.78701 89.10301
32.5414 19.955 82.513885
32.355217 19.756725 88.57878
32.848763 19.393381 89.1776
32.640804 20.511738 76.71963
32.63418 20.47181 81.4043
32.550697 20.209185 82.97038
32.736168 20.431469 88.48709
33.030262 20.140656 88.997604
32.53594 21.525618 76.78419
32.53581 21.748034 80.9948
32.887478 21.463266 82.55518
32.44287 21.316288 85.46434
32.575306 21.282866 86.080284
32.71832 21.043747 87.3525
32.98396 20.791393 88.26728
32.850346 22.64316 76.84955
33.302647 22.363806 83.62832
33.10697 21.88004 85.293045
32.628666 23.44044 77.08244
32.705917 23.196478 80.86314
33.40112 23.85951 82.50075
32.701473 23.967781 77.28301
32.40994 24.20107 77.61876
32.382854 24.53329 78.49532
32.442444 24.408339 79.5861
32.524292 24.099337 80.20786
33.463425 24.408693 82.15449
32.835754 24.640612 77.95747
32.723717 24.738064 78.48473
32.91982 24.786133 79.342705
33.493088 25.122105 82.89613
33.490665 25.054218 82.97526
34.40623 6.1522026 90.70646
34.363873 6.593619 90.10874
34.310127 6.515636 90.52608
34.348648 6.5855 91.085266
34.370636 7.002449 90.00505
34.36014 7.2899413 90.49206
34.378693 7.1272783 91.183784
34.14321 9.157121 76.86385
34.096546 9.134245 77.40414
34.19821 9.190222 78.28614
33.93314 10.006823 76.010666
33.814068 9.623753 76.58691
33.64096 9.524885 77.40383
33.87026 9.646502 78.760155
33.357365 10.467047 80.5908
33.15334 10.098207 82.39632
33.14096 10.155689 83.07325
34.077686 10.948805 75.33713
33.833504 10.518697 75.78389
33.423508 10.289604 76.391945
33.448143 10.497642 83.298325
34.137444 11.327764 75.31238
33.790096 11.421794 75.608055
33.947083 12.041429 75.7522
33.574207 12.467985 76.59503
34.10083 13.4978895 77.01793
33.73383 17.019531 74.988686
33.624043 16.721745 75.49527
33.47115 16.66468 76.42538
33.514595 16.527584 80.44315
34.04908 17.877779 74.38725
33.67274 17.587027 74.697334
33.517235 17.968468 81.18948
33.782978 17.70919 85.49181
33.32024 17.660936 87.342674
33.55597 17.92239 88.60823
33.744137 18.096209 89.00179
33.71177 18.179028 74.69879
33.42666 18.537203 89.40393
33.620785 18.852468 89.62305
33.730297 18.845837 75.145744
33.61117 18.928162 75.447914
33.50436 19.727428 89.56152
33.62217 19.421494 89.69819
33.209435 20.62151 76.6593
33.51509 20.136839 89.30409
33.971447 19.919035 89.60492
33.52769 21.470982 76.641075
33.67508 21.38465 87.213036
33.908318 21.101936 88.32155
33.814896 20.651505 89.039856
33.639404 22.107738 76.576706
33.59222 22.725918 83.92402
33.315372 21.683954 86.0446
33.345795 21.57289 86.91161
33.495064 23.305286 76.887405
33.77293 23.159626 82.963745
33.60259 22.816677 84.03241
33.15698 24.04258 77.22927
33.58847 24.387688 77.53092
33.549496 24.27261 81.44026
33.726707 24.266283 83.45871
34.206635 24.5701 84.431496
33.425514 24.80102 78.03156
33.55656 25.00365 78.6904
33.744823 25.163671 79.130394
33.340206 24.921926 80.04331
33.772343 25.217655 81.27686
33.590057 25.72543 82.26091
33.818195 25.468546 83.48892
34.203026 25.008402 84.42526
34.089687 25.99708 81.262184
33.849216 26.22982 81.96599
33.925213 26.414635 82.501495
33.985004 26.223562 83.12524
34.18638 25.914658 83.77164
34.21883 26.651564 81.89177
34.162712 26.712208 82.42248
35.2082 4.891334 90.67034
35.173927 4.9931374 91.17613
34.993656 5.7541866 89.90463
34.65654 5.7944746 90.537346
34.758045 5.776903 91.28581
35.092377 5.8907657 91.902115
34.564163 6.5740027 89.86265
34.519833 6.515162 91.42091
34.911736 6.6233206 92.01205
34.545387 7.4194674 90.01003
34.539204 7.592347 90.54685
34.58591 7.5897117 91.32427
35.1645 7.3201756 92.310165
34.69142 9.212217 76.20514
34.616936 8.954846 76.681625
34.721157 8.791741 77.38292
34.710785 8.962983 78.00629
34.710815 8.021547 90.67128
34.867035 8.245038 91.21368
35.22984 8.341022 92.17727
34.882217 10.201702 75.38421
34.595623 9.777361 75.77553
34.57248 9.810355 79.41873
35.444252 9.726179 90.877686
35.381 9.377743 91.39766
35.337887 8.902201 91.95412
34.527237 10.756345 75.22396
34.303463 10.371539 75.442375
34.4323 10.590839 80.331955
33.970627 10.48144 81.57166
34.413727 10.770675 82.02501
34.562748 11.440434 75.182655
34.87398 11.719431 84.23273
34.499 12.011947 75.33436
34.253654 12.603408 75.95225
34.908016 13.490716 85.41396
34.735184 16.338291 75.58659
34.661137 15.256804 84.75077
34.784924 17.195202 74.29264
34.644215 16.943342 74.60489
34.75146 16.699791 85.05877
34.73037 17.59294 74.21762
34.23561 17.2993 74.45786
34.284424 17.767658 85.40742
34.5401 17.85095 87.29337
34.6852 17.862267 88.303894
34.092075 18.300817 89.32476
34.682095 18.206072 74.24409
34.34001 18.554403 74.50726
34.603195 18.598713 89.47704
34.07961 18.874222 89.7001
34.9847 18.791035 74.506966
34.60011 19.34025 75.478065
34.0909 19.626806 89.6774
34.55086 20.329775 89.354744
34.472916 19.958172 89.640305
34.121548 21.792528 76.51464
[...]
POINT_DATA 5503
SCALARS features_00 float 1
LOOKUP_TABLE default
0.76449245 0.76383674 0.77358294 0.7794646 0.77824825 0.78105295 0.7014773 0.70226294 0.6926142 0.685372 0.70831424 0.7359233 0.7567635 0.7316293 0.732452 0.73701787 0.7048421 0.7594365 0.77917695 0.76884586 0.7712991 0.7379451 0.6806823 0.72300756 0.7731793 0.7751054 0.76536417 0.7262864 0.7141218 0.72901946 0.7427511 0.59752524 0.6159042 0.627332 0.6082542 0.6481844 0.6408591 0.64037216 0.64353716 0.6438719 0.69557434 0.66927683 0.6435109 0.693794 0.5055754 0.60789424 0.6746038 0.5018171 0.55957794 0.6210793 0.685668 0.64099514 0.6692225 0.63794625 0.6648959 0.49477428 0.46384558 0.5014473 0.4934435 0.5473096 0.6110904 0.63347334 0.50494194 0.6343368 0.6368724 0.39078045 0.33417737 0.4497334 0.61272013 0.5010362 0.08290884 0.44407243 0.18801159 0.2046018 0.22790858 0.63080144 0.68122315 0.2789591 0.25173426 0.37940606 0.5239855 0.6246911 0.685465 0.722829 0.47306132 0.42316747 0.37221834 0.17049378 0.48629612 0.5551405 0.6008739 0.66809356 0.70577073 0.7347431 0.53270507 0.50077695 0.45704663 0.40596884 0.26461226 0.4242435 0.54320824 0.5994594 0.6295864 0.67106545 0.5473333 0.52471805 0.50105894 0.41422448 0.32908505 0.19689606 0.29460174 0.43441755 0.5345407 0.5696634 0.6251737 0.602469 0.5842978 0.44889647 0.33902967 0.2394807 0.6590649 0.6711852 0.6612483 0.5697486 0.39305675 0.67448485 0.6659553 0.6065617 0.49797678 0.6299742 0.58430684 0.49489033 0.49422997 0.5713924 0.63300556 0.59899044 0.529696 0.42153266 0.31196928 0.6404511 0.6586925 0.5104481 0.44963288 0.5930857 0.5026764 0.23529705 0.44252303 0.20591436 0.063917115 0.39313406 0.366293 0.10872691 0.044590086 0.36938435 0.032383073 0.07096479 -0.0794624 0.6744721 0.36161295 0.18722466 -0.058652773 -0.15665072 -0.034730762 0.7239784 0.6721773 0.46372777 0.11566475 0.06646345 -0.060299195 -0.14567183 0.07028581 0.6958561 0.7552616 0.7457559 0.7282777 0.65772307 -0.12161865 -0.06542398 0.042519286 0.7559039 -0.006644033 0.7040772 0.7244046 0.50544333 0.035581753 0.0694317 0.6303938 0.6552061 0.5583096 0.16880476 -0.013368748 0.4021683 0.43752217 0.5125931 0.57506734 0.57054543 0.036795616 0.27020252 0.62378085 0.21537733 0.12696573 0.63746464 0.66197556 0.6473758 0.53760856 0.39693165 0.23853782 0.6327387 0.6289861 0.5515331 0.44643798 0.43657708 0.70723766 0.6918614 0.6925999 0.67135715 0.66954374 0.64659476 0.6285033 0.7911923 0.7539252 0.6817884 0.7650199 0.7351506 0.66432 0.57507586 0.2792307 0.46793365 0.53023994 0.77294743 0.75265056 0.6767434 0.46566248 0.7664174 0.72561145 0.6911403 0.4909646 0.2891773 0.7360021 0.6820937 0.51454914 -0.23988903 0.77483094 0.76229084 -0.15417716 0.046201214 0.5240119 0.6735616 0.6905666 0.76067734 0.72734463 0.70806986 0.71111584 0.6630037 0.6727242 0.68335885 0.42699662 0.6384672 0.6318597 0.4570539 0.39524704 0.48116627 0.57017696 0.47115475 0.1155704 0.34418735 0.3975419 0.5380314 0.079384856 0.13323587 0.6008619 0.56823176 0.18808788 0.31460613 0.4381371 0.58209014 0.55040187 0.48622674 0.3892936 0.36006975 0.5090928 0.5435674 0.49403092 0.458602 0.54717946 0.60685235 0.6156888 0.5802966 0.5808076 0.62620974 0.7446908 0.7337419 0.7228125 0.72848177 0.7134625 0.6822376 0.6859257 0.6667246 0.63593197 0.63022304 0.6059558 0.57537484 0.55763125 0.8621382 0.86962956 0.8314465 0.7390772 0.5263401 0.4750932 0.46330285 0.8083459 0.82059133 0.37220353 0.34971276 0.37829694 0.4158744 0.7942623 0.7933198 0.041269075 0.18259412 0.07043646 0.7802085 0.15882018 0.7587762 0.6551801 -0.04030937 0.691587 -0.3203175 0.7501043 0.7488985 -0.31868327 0.75305796 0.7736466 -0.14456397 0.24147928 0.5182 0.68884397 0.7449836 0.7548451 0.6648685 0.6771897 0.68737626 0.5913086 0.6424881 0.5632571 0.59742373 0.3771356 0.38120568 0.5193976 0.38324088 0.17364533 0.2919824 0.33919448 0.42317224 0.21991146 0.49920928 0.4684735 0.40708435 0.46413386 0.40442845 0.38882673 0.52383935 0.46484956 0.30227947 0.52586234 0.61624265 0.5614017 0.5767583 0.6457141 0.62703466 0.5846884 0.7333329 0.7286457 0.7106468 0.7391695 0.72039944 0.6829152 0.6435875 0.7028086 0.6502533 0.60958654 0.51341987 0.45840663 0.51750976 0.4801239 0.8847333 0.9015647 0.8429431 0.7115138 0.44074613 0.42872393 0.8087026 0.827276 0.4915814 0.4937482 0.2804051 0.3291076 0.39842868 0.7836227 0.767914 -0.09254533 -0.07421298 0.07102953 0.15412617 0.27928686 0.32059044 0.35103595 0.37604883 0.7664708 0.13431326 0.23010574 0.22997664 0.27847576 0.31272256 0.7581463 0.669135 0.09202093 0.12279853 0.18863788 0.21108831 0.16346774 -0.0015113652 0.0143722 0.1261295 0.17183656 -0.02692806 0.0145013705 0.5087343 0.28395063 -0.3382817 -0.16181481 0.7041936 0.6654613 0.6948874 -0.2019533 0.039912783 0.4327621 0.66093755 0.62924135 0.5937014 0.54635084 0.41391405 0.5508597 0.5870223 -0.041009877 0.3674793 0.4070719 0.115490966 0.2250121 0.2767208 0.29915935 -0.008216813 -0.053149894 0.3453426 0.16989587 0.37936497 0.22467475 0.32182527 0.5256669 0.4401507 0.5296161 0.584658 0.58859706 0.548903 0.6830436 0.7053193 0.6992613 0.65779394 0.65424085 0.62189794 0.5130069 0.474269 0.45968133 0.05457934 0.40433407 0.818029 0.7697728 0.068807706 0.39667553 0.7974105 0.7573595 0.6629002 0.56046116 0.11348195 -0.0020906627 0.35884443 0.7025088 -0.18521503 -0.1329456 -0.08400438 0.04489228 0.027110592 0.35032064 0.6771778 0.3724961 -0.14791515 0.1417189 0.27672204 0.28933105 0.5556091 0.24810551 0.17221797 0.12052123 0.100190766 0.1206577 0.111463055 -0.0448744 0.01904424 0.06442229 0.09574925 0.54560286 -0.56614304 -0.477184 -0.088314675 0.6181873 0.53492796 -0.4345902 -0.14277703 0.54378605 0.6020832 0.612054 0.5192276 0.56738186 0.60874283 0.6375741 0.5398594 0.15724441 0.5115518 0.5397935 0.53888 0.5862637 0.61290395 0.52172863 -0.11395617 0.25465742 0.4461128 -0.23137225 0.037355542 0.17481226 0.033348277 0.16057953 0.061163694 0.15894428 0.35032648 0.2604979 0.41348773 0.3437429 0.43452832 0.50735855 0.49874088 0.491637 0.66526276 0.6635883 0.63402647 0.6346792 0.5691728 0.62533855 0.5799311 0.47318038 0.4119984 0.5138119 0.5246024 0.45669907 0.3587547 0.07365974 0.03664269 0.26715836 -0.16323617 0.30444422 0.30348054 -0.15791106 0.28217557 0.2434497 0.6051202 0.36403126 0.08259547 -0.07899332 0.20014843 0.36687046 -0.06544157 -0.117641404 -0.026124094 0.03257452 0.25565878 0.16754131 0.14814803 -0.02099745 -0.02644617 0.21868798 0.13874808 0.02427632 0.062536724 0.26372233 0.16986457 -0.003905706 0.0016256984 0.08218706 0.20146924 0.1696704 -0.0004376676 -0.044725437 -0.091914535 0.07166497 0.08421455 0.10398266 -0.092105985 -0.10651526 0.15760294 0.46062142 0.5461238 0.6627493 0.36527574 0.14520606 0.3311093 0.4635364 0.5765987 0.67011714 0.67556787 0.25333384 0.15447287 0.26293373 0.6395575 0.65858996 0.26280102 0.24188857 0.48711765 0.56670606 0.59935665 0.5988881 -0.041282617 0.05121585 0.24413198 0.2416403 0.28009027 0.48474157 0.51675797 0.25651696 0.09601848 0.04387066 0.11804806 0.19182126 0.02237133 0.17638212 -0.3665203 0.10433301 -0.23067944 0.1401118 0.31376672 0.18937565 0.25443405 0.39217547 0.44226396 0.2826383 0.33213747 0.31313917 0.3503483 0.45377445 0.725659 0.71324635 0.6877109 0.6603465 0.70807767 0.6891269 0.6764641 0.6322993 0.26387322 0.47260398 0.64446115 0.32224584 0.33459818 0.5119173 0.22376883 0.33296555 0.334705 0.18213695 0.079682685 -0.19248164 0.17729622 0.18570016 0.019451104 0.035694934 0.00148632 -0.11970882 -0.13828506 0.14787124 0.033014238 -0.10487167 -0.04025293 -0.012985587 0.11803958 0.0040012747 0.083127946 0.31539932 0.03568669 0.0009272173 0.32508862 0.15086833 0.1283978 0.300519 0.3640474 0.16326685 0.25667945 0.33326048 0.18303552 0.11741134 0.6016321 0.63027656 0.05314648 0.6491553 0.61470133 0.108454354 0.5986204 -0.3470583 0.15757447 0.23847356 0.21161959 0.18611276 0.27249396 0.40025172 0.44881618 0.30488542 -0.31705183 0.1291713 0.15963888 0.16925354 0.18539205 0.31198245 -0.3423913 0.2802047 -0.38823527 0.14336023 0.06336206 0.36069682 0.66317487 0.1187575 0.46851125 0.75926733 0.77502114 0.24131541 0.47873518 0.49366048 0.8224451 0.82711464 0.7956183 0.34227532 0.3433888 0.4255213 0.47346744 0.83052766 0.7748633 0.68389595 0.74916255 0.72838527 0.69434226 0.5730754 0.7325471 0.27452707 0.62071836 0.16128053 0.272121 0.5000504 0.44445884 0.18811044 0.30754238 0.35490888 0.14686398 0.18764895 0.20599478 -0.2178422 -0.018453665 0.17911296 -0.013168246 -0.06394511 -0.1814103 0.14286146 0.126385 0.22229709 0.100554004 0.0059439316 0.021403864 0.17725243 0.10673952 0.39731735 0.13174862 0.12357341 0.41280678 0.13993879 0.33060578 0.1419011 0.09765286 0.45385543 0.40956306 0.047513038 0.49600714 -8.509308e-05 0.5444754 0.40870684 0.20232357 0.163482 0.29358014 -0.33040679 -0.11957063 0.030216329 0.120011985 0.11527316 0.12864082 0.14039953 0.13867742 0.2191669 0.31206644 -0.34470576 0.08193225 0.0990175 0.117917486 0.31667203 0.31319687 -0.3426559 0.1560102 0.29389003 0.69758385 0.6368334 0.3987677 0.74771214 0.4244382 0.8160665 0.36196876 0.20385265 0.32330376 0.3828469 0.4349526 0.4972317 0.83473194 0.82677555 0.7535198 0.5957056 0.3854637 0.6815027 0.69830716 0.6810775 0.5266658 0.60014665 0.6492528 0.2761729 0.3212707 0.32166967 0.30801833 0.49768955 0.2820505 0.25404865 0.41832998 0.24694473 0.74873924 0.72371626 0.62020713 0.46109444 0.07269214 0.23695615 0.74456084 0.65612066 0.5154838 -0.37474927 -0.08059482 0.23776162 0.5944125 0.15438762 -0.1644275 -0.3648072 0.16710688 0.11870565 0.086800426 0.2751495 0.04921613 0.081003524 0.37433365 0.10156212 0.08309053 0.12264706 0.09839423 0.16623665 0.0021669492 0.24355172 0.2967784 0.06634446 -0.17889851 0.30166405 0.19763163 0.18100825 0.39347386 0.17152494 -0.3291173 -0.2585599 -0.092234015 0.099742934 0.3317955 0.16392136 -0.007378921 0.11310338 0.17538871 0.2643841 0.25750124 -0.37712926 0.2980556 0.37637722 0.39510602 0.1873602 0.29014158 0.386325 0.4501141 0.4620144 0.061596677 0.21135278 0.4376312 0.46886802 0.47723696 0.615747 0.25745746 0.24164432 0.23095354 0.7314725 0.28674847 0.39621192 0.40491378 0.35373598 0.80343044 0.23425269 0.004001774 0.07238992 0.34389353 0.3289327 0.26213777 0.4251713 0.45722222 0.45154506 0.40514028 0.8263355 0.8007889 0.70838606 0.6212375 0.44141257 0.45448768 0.49045545 0.4824296 0.7356087 0.48979795 0.50082135 0.4321751 0.4344693 0.4507917 0.44818625 0.45250425 0.44179368 0.45100683 0.46053973 0.43842202 0.4630717 0.46877402 0.47267732 0.46758837 0.43721086 0.4844814 0.480228 0.50111926 0.48853743 0.48111102 0.5164783 0.5310173 0.61918414 0.6044929 0.5686487 0.51357985 0.50348854 0.5336695 0.5442653 0.6223141 0.59870964 0.7322527 0.766246 0.7453215 0.55529606 0.45569938 0.17807785 0.30797917 0.36248893 0.36589575 0.4574497 0.33599332 0.31167728 0.41642058 0.44891435 0.29015467 0.38545007 0.44721168 0.26748887 0.74527514 0.71575105 0.63495374 0.5407309 0.34123486 0.25396496 0.7624581 0.7138715 0.5435363 0.50307727 0.15267609 -0.21849316 0.28855318 0.7560535 0.171562 0.26919502 0.69360554 0.5756447 0.1908077 0.09632017 0.05532883 0.13892917 0.070480734 0.019130409 0.11016636 0.08290313 0.06305113 0.063260764 0.045555316 0.113913484 0.10093394 -0.026395679 0.121349506 -0.3179457 0.46820432 0.3663466 0.47249734 -0.12889448 0.4157433 0.5186377 0.034840286 -0.07864094 0.21514693 0.4449004 0.5197073 -0.47935218 -0.4281179 0.03676998 0.13078636 0.5740749 -0.35688126 0.08968876 0.34977508 0.095449865 -0.0013654497 0.057384133 0.11868216 0.44575393 0.40564346 0.04068579 0.118107654 0.09495717 0.12289959 0.18503006 0.47392732 0.44504762 0.5406085 0.48089632 0.2162213 0.22664854 0.13707547 0.6878642 0.3050441 0.26457852 0.7767254 -0.071232274 0.35009807 0.31005478 0.782351 0.7674986 0.66295755 0.5671488 0.26936847 0.0199669 0.25738272 0.40819386 0.40087968 0.31683728 0.4456734 0.4474479 0.4677571 0.4967019 0.42118973 0.4469493 0.3360147 0.37763318 0.42117643 0.3985822 0.38760006 0.42971867 0.41003412 0.38244316 0.40143988 0.4249699 0.44174534 0.40956378 0.31498596 0.41251191 0.43227097 0.4058224 0.4461485 0.4683538 0.41326737 0.4469836 0.28421816 0.39134163 0.31775063 0.43729797 0.5072345 0.502735 0.4959225 0.4618205 0.48768646 0.49230194 0.4561796 0.35142082 0.5071914 0.4413867 0.463153 0.4205833 0.2920678 0.47466737 0.51232195 0.52267724 0.51217586 0.48402846 0.4987361 0.49990267 0.47117475 0.5656705 0.47147205 0.34604338 0.3077094 0.3931166 0.45579702 0.55033636 0.54272103 0.5208363 0.57805675 0.6092522 0.6184881 0.5863031 0.51230377 0.372954 0.5166964 0.56508124 0.55204725 0.5706914 0.6141917 0.62648565 0.6221516 0.6511612 0.7038366 0.64945495 0.5687616 0.44336274 0.5038129 0.60886633 0.65168357 0.74776196 0.7712896 0.7078408 0.6375066 0.75217295 0.75794685 0.71638876 0.6759521 0.72457147 0.37815437 0.20004633 0.33611915 0.36837846 0.37188053 0.35028654 0.24598269 0.26519758 0.28645098 0.2420599 0.23785447 0.67901444 0.65542835 0.5284642 0.49298152 0.40271515 0.2851038 0.7032953 0.3455518 0.6474565 0.71160626 0.34708494 0.57525533 0.24583809 0.38993874 0.13270538 0.25139964 0.02460958 0.010376528 0.17714936 0.17403316 -0.025147855 -0.0074629113 0.13074161 0.13026455 0.06195651 0.11404265 0.04320039 0.18365726 0.14121373 -0.0069622025 0.21323693 0.18127875 0.017770201 0.068082646 0.37468997 0.49959025 0.03375146 0.48590806 0.5698899 0.12418544 -0.02619968 0.57433796 0.1308353 -0.031386614 0.5462567 0.582348 -0.075259745 0.6261393 0.6858496 -0.18646577 -0.40257645 0.55685985 0.64935696 0.03577976 -0.088116705 0.2704185 0.21525025 -0.11414843 0.0307622 -0.09519231 0.3535639 0.40739107 0.3796137 0.5330896 0.25900412 0.20328441 0.41283792 0.67363983 0.18983166 0.14825246 0.7571286 0.6601782 -0.057704456 0.03889326 0.25794315 0.22248022 0.7202207 0.6485577 -0.11534808 -0.30460125 -0.05144072 -0.063859455 0.27816513 0.26617453 0.23843071 0.1781804 0.041893512 0.053277135 0.27407455 0.3350851 0.21240836 0.34272498 0.18372768 0.3300348 0.3638193 0.15993813 0.26802868 0.35856116 0.37751222 0.36460227 0.28822488 0.32254642 0.50269485 0.50953245 0.16434221 0.37217605 0.2927697 0.46359682 0.48868716 0.12319304 0.15512824 0.1816374 0.32673162 0.2482041 0.054692194 -0.07198458 0.06183808 0.16233067 0.18339065 0.22253363 0.3883019 0.44228256 0.34033015 0.18619733 0.13554856 0.1434423 0.16737726 0.47978568 0.45919415 0.42459974 0.18188341 0.4736752 0.46630973 0.37787282 0.23645051 0.2684569 0.26758635 0.49137366 0.46630204 0.48590362 0.49975327 0.5039536 0.52431166 0.49053892 0.4041903 0.5202942 0.4968418 0.45206994 0.61215633 0.60307467 0.5571438 0.525248 0.49537605 0.5060483 0.45431113 0.53425515 0.6143759 0.6611937 0.6752534 0.4957648 0.31026262 0.34863442 0.43831217 0.62735236 0.66603965 0.7109942 0.7141684 0.7205744 0.6609875 0.62646824 0.690216 0.6631321 0.36762428 0.38080585 0.2682721 0.3652954 0.33292022 -0.009275444 -0.1819207 -0.10929452 0.29852754 0.25476715 0.122981556 0.43638414 0.008863194 0.120848075 0.6141022 0.5868662 0.49635053 0.3483507 0.31604093 0.32000083 0.5955297 0.5882809 0.35663235 0.5401634 0.36870378 0.4375946 0.28713143 0.2575822 -0.118438385 0.20453817 0.22187293 -0.16616768 0.1745368 -0.082237676 -0.060580224 0.14980675 -0.01866854 0.23027429 0.14988719 0.051933825 0.25032037 0.32702008 0.33864862 0.5010258 0.24902049 0.2380786 0.18836686 0.5511353 0.59980875 0.20215794 0.16016145 0.6486162 0.18890889 0.6887181 0.1973633 0.17919825 0.7250117 0.28922683 0.22597393 0.73513913 0.32019144 0.21619537 0.38972837 0.5572647 0.6899117 0.7153153 0.2527467 0.07003981 0.21799025 -0.3800974 0.2724341 -0.117067225 0.24807827 0.2681404 0.20706168 -0.042283773 0.13358429 0.57872677 0.17592993 -0.1653544 -0.09488659 0.18246889 0.2702988 0.016172642 -0.1023411 0.046062663 0.056042925 -0.11717355 0.139133 0.1806294 0.24262094 0.24554424 0.16090736 -0.32384026 -0.05746551 0.056876417 0.106424406 -0.14080766 -0.0334429 -0.022543997 0.53622127 0.06589064 0.024603352 0.028403744 -0.19450949 0.16879843 0.5645877 0.5752148 0.5583065 -0.005117886 0.20039324 0.16264424 0.18995887 0.33016005 0.5774958 0.5648377 0.54458493 0.52515465 0.09816647 0.2649516 0.22048117 0.24424869 0.29733735 0.4934371 0.5306256 0.515921 0.5185212 0.16064426 0.17542581 -0.0059595928 0.01767864 0.1358949 0.22389351 0.22756284 0.18710352 0.43211472 0.47269967 0.34148628 0.1979055 0.08641245 -0.2754554 -0.05530621 0.049368847 0.163569 0.14704663 -0.111947 0.11881137 0.4964533 0.36005253 0.21551582 0.048344858 0.17380117 0.5765645 0.53490484 0.45419693 0.15725578 0.14784484 0.1155746 0.082263984 -0.010929715 0.34910253 0.53688085 0.42665142 0.2873291 0.23259091 0.041451503 0.10001804 -0.10307135 0.2919387 0.5243075 0.4531262 0.40869707 0.14911167 0.26255336 0.38972574 0.43046975 0.4212887 0.41596645 0.20331869 0.30987284 0.5469117 0.4633829 0.30479285 0.5196919 0.23305511 0.3588146 0.5488589 0.61014986 0.66803324 0.69093406 0.55530936 0.34942767 0.63339746 0.6102062 0.5543868 0.6458708 0.60695016 0.5471408 0.5149101 0.5447007 0.40493435 0.3975498 0.19753674 0.14198542 0.35952684 0.35356498 0.2084201 -0.17221922 -0.24930449 0.3391366 0.19211572 0.22241545 0.21652687 0.5488743 0.5278044 0.41350362 0.23428097 0.31590012 0.5195401 0.526665 0.31338054 0.3532454 0.4177757 0.42089674 0.33985913 0.36633247 0.25052345 0.2848022 0.09552063 0.048934333 0.17085199 -0.17801422 0.19948715 0.21120955 -0.21481211 0.1632752 -0.22053948 -0.14681688 0.1586259 0.16113086 -0.11616044 0.23018745 0.19180831 0.25664014 0.25417873 0.33339235 0.46070284 0.25440878 0.5989017 0.64236397 0.23281282 0.20846042 0.70228267 0.1919519 0.19285133 0.74340284 0.24062699 0.22606976 0.71460235 0.32903144 0.29762086 0.69252956 0.7242267 0.34045953 0.3400228 0.51953936 0.67408824 0.29764366 0.2660945 0.2180001 0.14524846 0.15072429 0.11768024 0.2228894 0.21931352 0.2213037 0.21075724 0.2021589 0.30201977 0.35122228 -0.004374355 0.09509012 0.31846502 0.25601718 0.17108661 0.08151901 0.120127566 0.19935599 0.06978612 0.30807817 0.16169976 -0.13659549 0.09820698 -0.02689483 -0.24878442 -0.22527012 -0.09291802 0.41464496 0.4759931 0.49936655 0.49506497 0.0061977655 0.030301794 0.061917946 -0.30920294 -0.29430217 -0.24030314 -0.00021035969 0.48282462 0.52006006 0.46188378 -0.119956076 -0.34832662 -0.23960121 0.5214749 0.48908016 0.052586302 -0.24136204 -0.43373 -0.21827495 -0.20798714 -0.08509357 0.23417845 0.40581363 0.4704597 0.23518258 0.10028581 -0.15961114 0.14718978 0.24869052 0.46857175 0.47958612 -0.010476692 -0.14348741 0.23592064 0.580372 0.5301459 -0.19434026 -0.3062286 0.07178931 0.60860187 0.6004448 0.5643597 0.118609436 0.61423403 0.57697415 0.62306476 0.58327186 0.5227753 0.22048852 -0.12688828 0.28553241 0.6719847 0.5873999 0.14205647 0.10268238 -0.02356822 -0.1096389 0.29174688 0.7081195 0.11989956 0.26302186 0.30562595 0.3862959 0.43200606 0.35090607 0.34264734 0.48937768 0.559677 0.5914463 0.57940364 0.5177726 0.40906227 0.6123864 0.5847407 0.5783159 0.54721975 0.7005903 0.70141906 0.70596707 0.7032368 0.66048867 0.67028904 0.6566145 0.6620658 0.6386888 0.5897554 0.41196492 0.44427198 0.3895724 0.48880625 0.46720424 0.40251753 0.42266393 -0.030430272 0.11837468 -0.33551848 -0.047278717 -0.19030084 0.45177191 0.22193207 -0.06841521 0.08086878 0.13211395 0.20190322 0.2748632 0.15261349 -0.48932055 0.24154727 0.09438953 0.35073465 0.2042276 0.19176541 0.32010671 0.23251781 0.28617814 0.3633286 0.4480308 0.1987889 0.6334975 0.2062254 0.6642755 0.7060442 0.6910067 0.2670818 0.60395586 0.6600568 0.32836503 0.5196178 0.62674546 0.31862268 0.14889027 0.24344045 0.15744737 0.15602472 0.14307378 0.14939913 0.22069314 0.22174454 0.07287663 0.16350526 0.33214718 0.35624254 -0.10536738 0.40624648 0.40191087 0.2996108 -0.009261014 -0.028600983 0.4271918 0.45556387 0.45668447 0.037200533 0.2657184 0.3105263 0.4317689 0.11299488 0.21800454 0.3233785 0.3850821 -0.20296995 0.31141677 0.39262986 0.22996286 0.0009909794 0.0004027821 0.43633515 0.36642033 0.26987037 -0.50274915 0.3897413 0.3882944 -0.5533954 0.40629455 0.4213076 0.36948624 -0.24954665 0.52830523 0.5414182 0.2683257 0.5847891 0.58551157 0.08132763 0.60036504 0.60052574 0.10171187 0.6144469 0.63352424 0.6702789 0.06504615