# vtk DataFile Version 2.0
Really cool data
ASCII
DATASET POLYDATA
POINTS 8139 float
35.449947 -5.03159 21.007998
35.39278 -5.133681 21.617516
35.427357 -4.967547 22.057571
35.418705 -4.683067 20.837084
35.33148 -4.5667787 21.568703
35.402195 -4.604863 22.085953
35.45787 -3.984398 20.920162
35.41411 -3.5826983 21.640701
35.348854 -3.9081018 22.031994
35.469574 -3.020428 21.684334
35.320015 10.105653 24.875925
35.232643 10.048287 25.44026
35.30411 10.022178 26.054672
35.16846 10.702699 24.957644
35.035587 10.659803 25.546143
35.144672 10.638929 26.148958
35.212376 11.318657 25.018198
35.07259 11.428582 25.557348
35.18015 11.3883705 26.36106
35.354717 11.487435 26.772387
35.241074 11.944887 25.62241
35.30577 12.006742 26.326063
35.871326 -5.8081737 20.802992
36.021637 -6.0836625 21.424974
35.959038 -5.956276 22.268192
36.211063 -5.804859 22.769344
36.076374 -5.397947 20.086708
35.6819 -5.4040008 20.7272
35.56165 -5.5799074 21.562298
35.663776 -5.3746758 22.430273
35.880756 -5.2153254 22.879883
35.884594 -4.574331 20.035992
35.59272 -4.557394 20.493275
35.575523 -4.5990043 22.530062
35.936092 -4.55607 22.951553
36.056767 -3.7691083 20.114744
35.76817 -3.501306 20.67805
35.53035 -3.319853 21.282145
35.61386 -3.5145235 22.41057
35.948498 -3.4692872 22.853058
35.930996 -2.844533 20.936642
35.71727 -2.7297316 21.57133
35.790672 -2.7232406 22.276457
35.95936 -2.8478568 22.662909
36.140038 -2.1434247 21.868668
36.05941 -2.2954834 22.135975
36.2944 8.750749 24.920734
36.052547 9.005715 25.413998
35.79956 9.700566 24.486553
35.579235 9.562206 25.68588
35.73206 9.769461 26.366348
35.872814 10.010919 26.836899
35.47988 10.569242 24.552805
35.45237 10.374538 26.548336
35.849354 10.6198845 27.012186
35.601704 11.692603 24.843437
35.64399 11.467437 26.927513
35.482246 11.916896 25.08972
35.646492 12.315883 25.43232
35.71303 12.337968 26.452847
35.90248 12.14417 26.895353
36.002464 12.712685 25.965801
35.94989 12.641176 26.16436
37.262505 -6.7169437 20.225468
37.150864 -6.861012 20.883541
36.920715 -6.761951 21.648436
37.27002 -5.791948 19.188988
36.805256 -6.073619 20.036926
36.31375 -6.0952725 20.511557
36.5412 -6.452096 21.598387
36.351604 -6.2867036 22.361212
36.687298 -6.091047 22.933935
37.147156 -5.371298 18.965212
36.660145 -5.337915 19.539307
36.705784 -5.5025296 23.377052
37.29955 -5.7299547 23.764063
36.79449 -4.701259 19.181995
36.78145 -4.6423984 23.411194
37.090904 -4.169308 23.550772
37.35434 -3.4039605 18.300564
36.467754 -3.3509474 20.050846
36.815372 -3.7342033 23.321718
37.37017 -2.5002825 17.690306
37.34117 -2.4905999 18.306297
36.565765 -2.6112993 20.636072
36.692398 -2.6905465 22.97914
37.377644 -2.0958312 18.005737
36.94638 -1.7944767 21.691021
36.551647 -2.1572814 22.478407
37.366142 1.8966092 17.486156
37.41197 2.0296698 18.386644
37.175804 2.9559145 16.960344
37.15617 2.6350334 17.430094
37.368015 2.538425 18.518717
37.114452 3.689592 16.71559
36.97595 3.5389545 17.353382
37.390717 4.132197 20.431917
37.29686 4.465238 16.192068
37.105595 4.521789 16.66578
37.029354 4.6853895 17.296385
37.29829 4.7519493 18.137444
37.385506 4.342772 20.01945
37.233322 4.498854 20.547367
37.185238 4.778639 21.39944
37.298817 5.0238943 16.554884
37.101807 4.8241205 17.202265
37.329727 5.5419416 19.99708
37.111385 5.576937 20.610699
37.165447 5.305674 21.358114
37.270046 5.573227 21.919584
37.2644 6.717945 19.94928
37.287018 6.5292377 20.353071
37.22502 6.3141136 21.205263
37.245308 6.9709744 22.046257
37.430416 7.5974393 20.04726
37.22401 7.606097 20.56262
37.334133 7.728377 21.460463
37.25704 8.0432005 23.281736
36.81951 8.088176 25.72951
37.26058 7.6944838 26.063627
37.446495 8.339849 18.726023
37.465965 8.481719 19.427895
37.321465 8.68919 20.994755
37.10144 8.557039 21.658077
36.676617 8.846661 23.48398
36.56183 8.504393 24.434208
36.65443 8.325349 26.187786
36.872105 8.810787 26.900711
37.482067 9.22232 19.179483
37.273876 9.092375 21.18748
37.023483 9.647922 21.965504
36.707294 9.509279 23.6123
36.521 9.734719 27.112885
37.31715 10.620205 22.42256
36.585087 10.600572 27.414537
37.01482 10.900017 27.683544
36.55423 11.539789 24.290012
36.49299 11.452792 27.371494
37.153862 12.907444 21.48604
37.293053 12.625811 22.350864
37.26817 12.371865 24.149298
36.97902 12.4042845 25.169352
36.357727 12.56017 26.660263
36.572094 12.235235 27.038021
37.256256 13.457469 20.793804
37.065903 13.734586 21.198505
36.350994 12.694365 25.460482
36.42662 12.7194395 26.480429
37.07128 14.595363 20.824965
36.87669 14.605947 21.437672
36.870094 14.372773 22.359692
37.15931 14.69181 22.930115
37.15801 15.329455 20.827398
36.914173 15.578548 21.700397
36.951885 15.408517 22.292562
37.259357 15.268822 23.101812
37.19954 15.880662 21.155457
37.19916 16.003855 21.65992
37.199635 15.957639 22.22271
37.515938 -6.760012 20.136505
37.715843 -7.04107 20.500088
37.88351 -7.3494983 21.426899
38.153687 -7.292503 22.178263
38.143078 -6.8686714 23.582367
38.35529 -7.308296 23.878647
38.311634 -5.9922934 16.64395
38.25541 -6.089301 17.415424
38.027264 -6.22443 18.566893
37.823265 -6.4647326 19.39928
38.01776 -6.2381954 24.138765
38.292816 -5.406352 15.915114
38.091473 -5.432112 16.587862
37.963676 -5.586968 17.49756
37.561665 -5.148986 18.3544
37.52899 -5.8094583 23.755335
38.33418 -4.382423 15.952568
38.17887 -4.460358 16.364437
37.579338 -4.7668953 17.743088
37.471508 -4.7534547 18.453716
37.795715 -4.639066 24.016167
37.793716 -3.3647962 16.856117
37.497147 -3.162716 17.270021
37.560238 -3.9243166 18.386496
37.66426 -2.499544 16.80514
37.49931 -2.7284474 17.224117
37.302956 -2.6961722 23.089308
38.361404 -0.85258377 11.829055
38.350433 -1.0540016 12.362126
38.29829 -1.8791369 15.995843
37.975437 -1.4397042 16.612457
37.49541 -1.8627465 17.865992
37.85241 -1.5652297 20.755285
37.46293 -1.597198 22.479378
37.789814 -1.501464 22.91454
38.27825 -0.3605022 11.692212
38.06295 -0.22567824 12.4641
38.12709 -0.04435699 13.294541
38.27184 -0.3989032 14.7395935
38.125572 -0.48804948 15.63605
38.051613 -0.39170092 16.573391
37.863266 -0.5286044 17.346457
38.13447 -0.86259025 20.753407
37.859783 -0.05002296 21.685013
38.05188 -1.0395482 22.664
38.10202 -0.7219924 22.83978
38.214725 0.36767948 11.717939
38.062675 0.482831 12.418493
38.066982 0.45119593 13.30158
38.164135 0.17780548 14.70417
38.193596 0.796795 15.708277
38.082706 0.6512854 16.582348
38.04313 0.7769226 17.54606
37.950375 0.9403755 18.510523
38.27905 0.07589543 19.628124
38.117306 0.71476966 20.603048
37.814297 0.56319624 21.511517
37.938778 0.46142352 22.28003
38.488377 0.86479443 25.60812
38.233685 0.95608085 11.823909
38.256565 1.0794487 12.378629
38.428738 0.9627704 13.937216
38.20823 1.7479385 16.077858
37.730316 1.8635861 16.6228
37.504196 1.6324399 18.318674
38.00947 1.5907133 19.518337
38.04799 1.8239038 21.938478
38.133953 1.3455396 22.519861
38.132812 1.6535589 23.331629
38.372807 1.4767148 24.406572
38.25553 1.671238 25.57193
38.242733 1.8181773 26.219103
38.346798 1.9862409 27.19484
37.901543 2.717483 19.71268
37.866714 3.1087255 20.604797
37.858376 2.565487 22.555824
38.04462 2.5902495 23.571703
38.13471 2.5248518 24.742533
38.166622 2.6017513 25.528687
38.091972 2.648884 26.57175
38.139343 2.7226605 27.409845
38.268063 2.8434668 27.906403
37.60417 3.4164524 16.037992
37.509747 3.4313955 16.323757
37.663704 3.4305005 19.0212
37.69988 3.5328963 21.86498
37.923 3.485104 23.43615
38.188038 3.4917822 24.440231
38.206814 3.6980245 26.039673
38.091434 3.2822928 26.644886
38.198036 3.4682503 27.656813
38.275246 3.243515 27.983103
37.76547 4.3692174 15.756482
37.49906 4.796275 18.370066
37.61537 4.523989 19.635513
37.630405 4.1023936 22.590124
38.25122 4.1447463 26.726816
38.22158 4.0851884 27.255655
37.778408 5.56875 15.85422
37.489845 5.5357327 16.399984
37.59366 5.392967 19.384794
37.499336 5.5217085 22.069336
38.14533 6.297576 15.604313
37.769417 6.2691846 16.617117
37.984016 6.209387 17.618279
37.891544 6.5612335 19.071648
37.662453 6.5139976 22.243883
38.27773 6.94726 15.951705
38.15269 7.337276 16.744661
37.51632 7.8591638 18.814985
37.55675 7.37052 19.379467
37.62624 7.5209146 25.466286
37.51095 7.967477 26.809397
37.86672 8.515819 17.220282
37.73219 8.448103 17.660011
37.578182 8.73222 18.486744
37.573357 8.907794 27.334059
38.221016 9.442434 17.19731
37.94072 9.418533 17.609594
37.564514 9.062751 18.50217
37.64323 9.339227 19.683895
37.576122 9.5514145 20.201769
37.76463 9.430332 27.409655
37.98528 9.904397 17.875801
37.863876 9.836625 18.24595
37.67515 10.4404955 21.596798
37.57148 10.530273 27.697832
38.146034 11.781546 20.797092
37.53962 11.6972065 22.343891
37.544132 11.48061 27.64254
38.154827 12.576108 19.76039
37.66055 12.282862 23.448652
37.509537 12.158716 27.223358
37.965317 13.872351 19.20849
37.94745 13.223349 19.570637
37.457832 13.992559 22.983147
37.901386 12.680154 24.90899
37.077465 12.696998 25.85799
37.17187 12.686491 26.167171
37.986946 14.309955 19.180174
37.71881 14.430033 19.648113
37.96703 15.112838 19.81491
37.738354 15.551454 23.444262
37.99493 15.012892 23.925148
37.64322 15.925974 20.792265
37.72865 16.378208 21.636826
37.623802 16.255304 22.421581
37.759113 15.955567 23.113777
39.39181 -10.816213 34.0356
39.20091 -9.898524 32.629955
39.231934 -10.2767315 33.456745
39.2893 -10.508214 34.417946
39.343803 -10.247577 34.995346
39.2705 -9.106256 31.877613
38.96452 -9.352556 32.652145
38.930725 -9.379836 33.17314
39.12394 -9.526002 34.211464
39.378994 -9.77979 35.20637
38.92251 -7.6965985 21.393631
38.620987 -7.7923164 22.716759
39.25077 -8.410765 24.61006
39.319847 -8.7465725 31.883991
38.962788 -8.768749 32.58472
39.07517 -8.597747 33.517376
39.336708 -8.77424 34.485992
39.386063 -8.961385 34.955193
39.15836 -6.6639166 15.925698
38.965996 -6.669213 16.393444
39.06389 -6.800283 17.632881
38.294308 -6.6878853 19.139454
38.536087 -6.9734063 19.771032
38.350555 -7.511107 22.612686
38.666286 -7.6183004 23.479113
38.52666 -7.371271 24.119122
39.019894 -7.562071 25.03871
39.215637 -8.011256 32.69814
39.30467 -7.9028506 33.272594
39.004337 -6.031124 15.123819
[...]
POINT_DATA 8139
SCALARS features_00 float 1
LOOKUP_TABLE default
0.61883485 0.6380238 0.6420948 0.6078489 0.6345732 0.64294076 0.60545486 0.6374371 0.6449249 0.63666236 0.64025426 0.6882535 0.71298873 0.7556963 0.79470253 0.8087154 0.8136046 0.86693454 0.8887347 0.886362 0.872341 0.89407074 0.5727222 0.59855473 0.6143093 0.5651527 0.48877126 0.5896753 0.63355106 0.6317527 0.6002028 0.5112067 0.5765188 0.6413698 0.6116427 0.49396992 0.5766411 0.6215592 0.6499251 0.6232134 0.5784488 0.6193298 0.6136718 0.5886704 0.56129277 0.5706367 0.4200648 0.50800616 0.48840383 0.6156981 0.65798885 0.6882348 0.6584203 0.76561755 0.76997256 0.75907266 0.87091446 0.8006384 0.80409753 0.8609432 0.8580892 0.78583777 0.80977523 0.31272253 0.35367173 0.43782055 0.2593639 0.37434465 0.4826995 0.52575374 0.55451363 0.47199833 0.2468104 0.35524422 0.44904548 0.32113642 0.281978 0.45529318 0.3755702 0.17226338 0.42210737 0.4553569 0.17889756 0.16308314 0.48580235 0.4366813 0.16050135 0.4003585 0.46493918 0.21646395 0.16191699 0.32135457 0.28475118 0.18146555 0.36313993 0.334324 0.14244169 0.3682444 0.36187285 0.3264942 0.21648991 0.13714759 0.17041612 0.19143823 0.3497123 0.32799733 0.14393386 0.1862528 0.20530847 0.20172971 0.10716029 0.13617006 0.1862813 0.14646685 0.08974503 0.097464435 0.11208764 0.08631585 0.46726894 0.45435932 0.19234079 0.13619865 0.07267101 0.07520811 0.20210502 0.34347248 0.5169194 0.5637822 0.20732814 0.060022034 0.045674987 0.23388334 0.6260967 -0.011044001 0.70715356 0.6898068 0.52211905 0.80697536 0.3240173 0.20415154 0.45326492 0.6273007 0.78998494 0.79896945 0.43594968 0.48277938 0.7086572 0.76199496 0.5946266 0.637317 0.62507385 0.6815939 0.6618725 0.7237427 0.72986233 0.71120954 0.71062255 0.7315569 0.73783886 0.27831057 0.2573325 0.28320172 0.28991598 0.25136366 0.21826263 0.38897023 0.2790741 0.18331285 0.22842936 0.20531398 0.45408595 0.36999798 0.2502701 0.18190123 0.29174367 0.34251332 0.30766946 0.17312282 0.16719845 0.21600999 0.16195147 0.16862273 0.15559022 0.14152221 0.16384238 0.2872066 0.6614374 0.6110425 0.069995 0.098778084 0.15322986 0.11076154 0.19808653 0.07727216 0.6869093 0.6190313 0.48190635 0.09433804 -0.0070899064 0.018990979 0.044806343 -0.06541674 0.03642474 0.007849395 -0.033007048 0.675184 0.6003823 0.4708493 0.1062015 -0.004549226 0.031943552 0.087019295 0.047096007 -0.09188483 -0.05985116 0.0030276775 0.02351401 0.13688135 0.6255121 0.5544928 0.32231176 0.11338239 0.19140533 0.13695994 -0.017070185 -0.0066235736 -0.008392055 -0.014594307 0.04075356 0.14571898 0.20387015 0.24444392 0.034005925 0.040584214 -0.0031384137 -0.0040675364 0.07347983 0.16438806 0.275878 0.30077353 0.28904408 0.33817047 0.3516521 0.12625276 0.090206 0.018288895 0.06294863 0.24772035 0.3045625 0.3287984 0.303912 0.3547725 0.1699003 0.12029149 0.095277146 0.32249898 0.34693792 0.34069118 0.3360625 0.093068734 0.18977836 0.30911082 0.30539078 0.19285734 0.06983163 0.16490275 0.2656898 0.25113663 0.14604527 0.09597352 0.3628314 0.48002672 0.3193069 0.30505434 0.2526625 0.54465157 0.34023717 0.35607928 0.2759267 0.15547188 0.09640143 0.5404456 0.3816665 0.36008418 -0.012122521 0.5916512 0.16343302 0.008864198 0.6616391 0.3612414 -0.0017798096 0.67767084 0.35377797 0.3884307 0.543064 0.44865263 0.624498 0.6225776 0.34720486 0.44397932 0.45282352 0.6780172 0.60659474 0.67149955 0.69038236 0.7091621 0.68876535 0.7301055 0.6605468 0.6911968 0.75589776 0.7472624 0.63753307 0.69366395 0.71532047 0.6988499 0.6764264 0.17555504 0.21279368 0.17987986 0.6121891 0.6764128 0.6559596 0.5764489 0.57377493 0.45474964 0.42192903 0.25786555 0.16555095 0.14879924 0.25850356 0.21339296 0.1946118 0.1005135 0.57618904 0.5479916 0.4762324 0.4663182 0.42107207 0.27425474 0.19089447 0.15137532 0.119918406 0.073336095 0.15401411 0.48139668 0.48789346 0.13578998 0.041398883 0.14316028 0.15180103 0.39851475 -0.035195544 0.107903875 0.10408664 0.13295239 0.17992929 0.25360703 0.0065236273 0.07537986 0.6033878 0.5320076 0.085216545 -0.0088256635 0.27569377 0.31482357 0.6796804 0.6418656 0.5873939 0.43327302 0.044928193 0.025231082 -0.06856809 -0.12863721 0.10451642 0.10052161 0.03668396 -0.05001722 -0.039693944 0.058784872 0.28639 0.3433318 0.37996805 0.7088145 0.69064003 -0.0976329 -0.028361551 0.1044103 0.12366473 0.06517872 0.025475938 0.31839293 0.38735953 0.43797374 0.7021184 0.692873 -0.030852262 0.028503798 0.14234066 0.116101466 0.06427879 0.34459466 0.37363014 0.67861366 0.62296283 0.47962058 0.17351301 0.20753953 0.33720413 0.26669475 0.033433348 0.21997002 -0.040197607 0.2575291 0.19278686 0.32883298 0.23323849 -0.00045845658 0.23917773 0.29601738 0.42168093 0.5212617 0.29552254 0.18904883 0.27727497 0.34122366 0.2738275 0.27538735 0.2818894 -0.21922107 0.33049345 0.25065753 0.40584883 0.22783282 0.23625872 0.48536274 0.27767754 0.41920447 0.28078428 0.33386898 0.35082594 0.46156424 0.5265736 0.42228833 0.5295843 0.50291884 0.24148332 0.21392927 0.24063066 0.3774963 0.5861327 0.6117677 0.6065589 0.6095178 0.59330606 0.55002594 0.5609971 0.7238711 0.59629864 0.6970923 0.7613169 0.7893287 0.2687362 0.31090719 0.31087244 0.2774821 0.6083785 0.6283958 0.67047346 0.77081513 0.7370989 0.09733105 0.26408955 0.29443592 0.24967602 0.6231964 0.65105116 0.65126824 0.03940987 0.15057181 0.574734 0.5172688 0.56116706 0.56941557 0.4623775 0.4352715 0.30409208 0.23320772 0.009765968 0.13708246 0.06539727 0.10858735 0.13841495 0.5003588 0.48672163 0.43317088 0.47098577 0.45709923 0.47094777 0.16258025 0.31576645 0.3487228 0.43228364 0.15862022 0.14294386 0.012653143 -0.033387512 0.13790366 0.12762392 0.10949729 0.03940037 0.08123109 0.15549947 -0.10902561 -0.043570705 0.016815128 0.046968773 0.052402794 -0.03224267 0.06221042 0.16888462 0.22352616 0.59484386 0.5062842 0.3761867 -0.05859866 0.0021013878 0.12267033 0.20785046 0.2762315 0.32510376 0.2813725 0.2348184 0.65562296 0.64120996 0.018261958 -0.051352985 -0.014976159 0.08567706 0.2065345 0.38015258 0.35714972 0.33266622 0.6135914 0.6734274 -0.007050475 -0.027879484 0.06391324 0.25074482 0.42072988 0.4269261 0.3395591 0.6069635 -0.03778834 0.17982723 0.31490636 0.38655013 0.4437843 0.42211765 0.6069399 0.24231784 0.3854693 0.4191671 0.4217242 0.47451746 0.12641129 0.13843808 0.04279588 0.05949734 -0.008596629 0.18205032 0.34274104 0.43484777 0.1506592 0.54089916 0.5710045 0.62420845 0.13667619 0.18403894 0.2214845 0.49451864 0.57921326 0.60093784 0.660885 0.6320511 0.1679056 0.57026756 0.62086654 0.66533697 0.6447727 0.16534738 0.14008194 0.20849514 0.1626644 0.3224508 0.16427712 0.32548875 0.108687714 0.3982011 0.46536264 0.1762677 0.13876428 0.26178494 0.3129115 0.39385715 0.11058977 0.1082146 0.14309795 0.59956944 0.4611261 0.23924962 0.36474776 0.7081182 0.6447854 0.25376233 0.35401058 0.45439136 0.49505836 0.727229 0.66168 0.554901 0.24582568 0.37133425 0.44630912 0.6623729 0.66331017 0.646384 0.35560754 0.35826233 0.3267849 0.2693261 0.1924657 0.16675872 0.5653886 0.63449764 0.70951056 0.7438599 0.30949658 0.28766403 0.2615848 0.22501974 0.16021587 0.49084198 0.5619062 0.72937226 0.23453376 0.15007769 0.18228914 -0.044281457 0.49041593 0.61273086 0.40880153 0.33639783 -0.10479607 0.015321843 0.014918879 0.029062524 -0.09973438 0.1572629 0.54919773 0.44967192 0.004656814 0.00046048313 -0.05631276 -0.20402476 0.29340968 0.43667895 0.4521192 0.63298464 0.61811686 0.563565 0.37714612 0.022883348 0.22013858 0.29790556 0.1790422 0.60307246 0.52466214 0.40231404 0.038772393 -0.0918378 -0.024479672 -0.08408856 0.0471773 -0.012547806 -0.09027678 0.29144216 0.14692777 0.11401583 0.052655622 0.1443704 0.31036508 0.55814826 0.19014344 0.2321203 0.36007392 0.47034186 0.57203484 0.56704885 0.23528776 0.20088626 0.4711331 0.55566436 0.57336146 0.55893767 0.30388057 0.43530935 0.46845394 0.38619193 0.43442318 0.3741718 0.37110373 0.3183288 0.5384004 -0.06501928 0.54184353 0.41498065 0.6424805 0.6066003 0.3895735 0.17014624 0.55650294 0.49024856 0.65807927 0.6653646 0.59534085 0.4930375 -0.0023264661 -0.079852805 0.5128312 0.6092179 0.5846045 0.65794027 0.672317 0.6369953 0.56764746 0.6614994 0.6451521 0.055839892 0.07985607 0.15398507 0.1250425 0.058211297 0.19324037 0.07728876 0.16651867 -0.002897866 0.1296611 0.12596707 0.6360965 0.61133844 0.20956391 0.7389171 0.09513642 0.776564 0.76519907 0.3522045 0.20463288 0.26887557 0.7548257 0.6844616 0.54662675 0.44400617 0.3937993 0.37879133 0.34648234 0.2741147 0.14130597 0.116882056 0.08553307 0.10406273 0.19833906 0.5584882 0.52753747 0.39389104 0.37555033 0.29417002 0.1687876 0.12368219 0.12911357 0.15483028 0.18187988 0.37277287 0.4392562 0.5652077 0.5484046 0.41026092 0.3777093 0.02946186 0.0792745 0.09912663 0.14820361 0.5885914 0.3237787 0.04429046 0.040649332 0.015887633 0.0639407 0.4300788 0.3436811 0.2809563 0.07259864 0.2077544 -0.13736871 0.26392707 0.66066575 0.64566565 0.31510013 0.3533194 0.64993775 0.6560968 0.63980746 0.5854599 0.6312022 0.1189381 0.24081026 0.26819953 0.49200505 0.02942695 0.05080024 0.20045179 0.30136192 0.40481555 0.26379156 0.023351468 0.39432144 0.5106228 0.5448503 -0.08257307 0.59359956 0.6205623 0.37372977 0.49018604 0.58779216 0.6254765 0.30818588 0.08762879 0.28089136 0.45165813 0.56052196 0.60284674 0.09704309 0.061001215 0.042261526 -0.05760094 0.13706583 0.12916447 0.1378879 0.27781707 0.26069024 0.28237435 0.3187918 -0.25387675 0.37252864 0.32635862 0.5167754 -0.13465723 0.49473614 0.42123252 0.533155 0.1904719 -0.054656073 0.53514844 0.53288203 0.50743604 0.4700346 0.5809206 0.4010412 -0.08805769 -0.25824898 -0.0944244 0.4785149 0.5764859 0.5833392 0.45501196 -0.23314752 -0.18093812 -0.07025524 -0.04377942 -0.10925683 0.103161804 0.05307588 0.20198543 0.1472385 0.19903383 0.08126745 0.1969851 0.176337 0.18432793 0.18804035 0.27037504 0.5626543 0.26895827 0.28786278 0.7611594 0.24759445 0.28990236 0.78812367 0.3550842 0.31182286 0.76865363 0.7418027 0.64190936 0.54676956 0.47219956 0.39799455 0.3963555 0.3399612 0.3758888 0.40129834 0.13753095 0.21180853 0.2547611 0.357501 0.38648707 0.35959208 0.24646457 0.12640518 0.0932566 0.16654173 0.20589745 0.45663983 0.4820908 0.45714623 0.47096324 0.4352621 0.028251812 0.09323549 0.33370215 0.29930902 0.3984709 0.44188458 0.4376326 0.45801798 0.3839969 0.35612822 0.25824815 0.10364752 0.65719163 0.6331154 0.5335146 0.1703822 0.18677203 0.29230466 0.29815853 0.6590829 0.6695696 0.24720298 0.26177877 0.2799464 0.6258646 0.3000594 0.45314917 0.37986103 0.39624035 0.40113235 0.22087511 0.5137768 -0.1802967 0.5930481 0.5638062 0.6174785 0.59530234 0.05499393 0.19697502 0.36837843 0.5444601 0.5760106 -0.1483243 -0.055070803 -0.0132042505 -0.18362461 -0.1305857 -0.07447175 0.04068267 0.052469935 0.22679925 0.09438668 0.14848588 0.26824766 0.28068915 0.28591213 0.32048827 0.31815916 0.32967746 0.35117292 0.46214348 0.44100147 0.34942845 0.38789856 -0.0047549903 -0.025390953 0.33740193 0.33578613 -0.16754782 -0.23241825 0.012119984 0.20341586 0.21945122 0.16764289 0.10828039 -0.07139405 -0.23992144 0.085591316 0.06991244 0.19765285 0.10858835 0.2436255 0.24606717 0.1501393 0.25931332 0.092343345 0.099859916 0.26203334 0.56619287 0.3093311 0.30422506 0.7308682 0.3171863 0.31151295 0.7176328 0.37549108 0.33287364 0.6350602 0.5487375 0.46392775 0.4667651 0.4525736 0.4224253 0.4905546 0.46125543 0.41086942 0.42941463 0.4336971 0.31606284 0.4139353 0.4172875 0.3620904 0.2985263 0.25747138 0.10783403 0.20438403 0.36717892 0.3422101 0.32486975 0.30677766 0.090916544 0.0010297596 0.12952122 0.44712442 -0.13114244 -0.18379171 0.016708419 0.40233296 0.17949905 0.33474943 0.14255106 0.05940664 0.63955975 0.54475206 0.47327954 0.14063248 -0.036789134 0.15481946 0.5746589 -0.030596895 -0.17425063 0.2681086 0.22906062 0.50614315 0.23484927 0.24729677 0.03523838 0.31794727 -0.16099352 -0.045120053 -0.089575484 -0.122518905 0.4888642 -0.048535775 -0.061427426 0.54872024 -0.07172591 0.43686467 0.49682486 0.0019092388 -0.1809757 0.017082036 -0.048115566 -0.09181802 -0.21678504 -0.18077809 0.11181123 0.249073 -0.009537587 0.13230287 0.24977054 -0.009586498 -0.019459251 0.13972603 0.06430064 0.19535361 0.30911523 0.085797794 0.2497897 0.16368937 -0.14531565 0.24889159 0.2866131 -0.16410135 0.24603786 0.17367633 -0.07207007 -0.020083003 0.1545847 0.15579784 -0.38819546 0.121295445 0.15247628 0.2700659 0.28074443 0.3289948 0.2168744 -0.4030426 0.21086362 0.35424826 0.35477597 -0.0013695052 0.3421288 0.0811117 0.22520398 0.2534898 0.01810849 0.08569102 0.23567075 0.27800456 0.06522232 0.3223955 0.37231445 0.32954717 0.32521158 0.5359551 0.393355 0.3558972 0.39886087 0.4299481 0.44168413 0.43502855 0.4619344 0.46213636 0.4210532 0.37447143 0.3527335 0.44914156 0.28409052 0.23952061 0.37764013 0.40733412 0.4245404 0.4163442 0.30026805 0.2590964 0.10298277 0.1900487 0.41472998 0.37719494 0.3837746 0.27842945 0.30015743 0.17049938 0.18796766 0.36720628 0.38055652 0.4023396 0.32014787 0.23366281 0.29502374 0.31364194 0.15281065 0.043138243 0.1367754 -0.077749535 -0.019184865 -0.061699577 0.068132564 0.36292642 0.29852593 -0.3401149 -0.112630285 0.10219321 0.1983019 0.391946 0.21508358 -0.032461256 0.29853094 -0.4029979 0.20305002 0.24619731 0.1886954 0.30728507 0.020260576 -0.030749105 0.30334625 0.38216877 -0.05582568 -0.11645439 0.371727 -0.03362702 0.32615235 0.31641507 0.13067695 0.11108001 0.052683033 -0.030138353 -0.023222342 0.13366824 0.1150109 0.07989372 0.2197136 0.2740625 -0.012752516 -0.07509315 0.32765904 0.2685593 0.108702086 -0.17978036 0.07775425 0.3256195 0.32987738 0.4555617 0.32879657 -0.015360713 -0.15344104 0.5275466 0.5092336 0.42905015 -0.3625713 -0.098129496 0.52821 0.5082352 0.444985 -0.3001292 0.4308255 0.060194984 0.09340145 0.050556615 0.071983434 0.11235057 0.12797369 0.014998481 0.24297063 0.45347953 0.17920464 0.2928256 -0.12543644 0.22123173 0.62441576 0.65022826 0.21681261 0.2872725 0.367351 0.34615746 0.25319204 -0.3512055 0.1651682 0.2932414 0.6244614 0.6746985 0.3576421 0.34358102 -0.08340716 -0.024539702 0.08082417 0.16043983 -0.052387673 -0.042088844 0.00968425 0.13712509 0.29013562 0.33217636 0.21544015 0.33764967 0.33227724 0.36521572 0.3814935 0.35723978 0.3497641 0.3990758 0.3836804 0.37104213 0.4253339 0.41449666 0.31678957 0.32586554 0.29763773 0.28500646 0.37993294 0.33159798 0.3224932 0.32737115 0.2951158 0.26505086 0.3013987 0.39619258 0.4760769 0.43884498 0.36977288 0.5040471 0.30710006 0.48762915 0.29157358 0.4663967 0.46160915 0.46726614 0.44350064 0.27678576 0.2310437 0.12639779 -0.053566374 0.19690107 0.061915535 0.0038775504 0.15258224 0.46442074 0.44611788 0.0115681365 -0.0003793463 0.45063284 0.48745567 0.4842953 0.37917128 0.27102554 0.05831538 -0.09526167 0.0074441954 0.06087986 0.41741708 0.44205737 0.44483268 0.37684727 0.29418868 -0.013110563 -0.18835858 0.026772872 -0.22550738 0.053376533 0.2113846 0.3258114 0.32718956 0.35113674 0.33564943 0.26191455 0.32233733 0.46362534 0.23782097 0.18148552 0.45067352 0.48243326 0.07077735 -0.038989298 0.40885073 0.43233958 0.005385084 0.3525504 0.10158701 0.085432366 0.089008406 0.16783251 0.12753487 -0.102568716 0.1096645 0.11697542 0.27407247 0.1952157 0.2608294 0.35843357 0.3894463 0.32067567 0.30735058 0.48956227 -0.46668315 -0.10811956 -0.059846245 0.023944404 0.51277447 -0.48114836 -0.39929163 -0.09776617 -0.0057313964 0.12235078 0.5055065 0.4835803 -0.39443892 0.44680843 0.30512297 0.08014803 0.15885113 0.14213398 0.18599689 0.04616749 0.339826 0.45356196 0.50849706 0.105393544 0.15911141 0.6394572 0.612524 0.20109323 0.28157455 -0.330015 0.010355793 0.0460397 0.3659799 0.6249753 0.7230012 0.73253417 0.30911565 0.33457884 0.21022867 -0.2674853 -0.100765176 -0.030201942 0.6835221 0.7396071 0.758924 -0.0592058 0.22893083 0.2913197 0.2688703 0.25023547 0.26584366 0.23115797 0.17789218 0.33553505 0.2534516 0.2941945 0.2518885 0.3193452 0.3192806 0.32847577 0.28986502 0.26841635 0.2650594 0.2923007 0.33650553 0.41864634 0.39711836 0.25419486 0.34118208 0.4279093 0.43754843 0.46292526 0.40882736 0.44127613 0.3384167 0.4184904 0.41445845 0.19299687 0.36107063 0.3124315 0.48439223 0.429007 0.21260497 0.32162654 0.2268829 0.46709126 0.4254115 0.19217364 0.37959248 0.44236702 0.3801605 0.14517689 0.118599094 0.092975564 -0.14929414 -0.29314038 0.43084437 0.32132232 0.24037986 0.20811884 0.09556961 -0.012829932 0.40367335 0.1536564 0.016931757 -0.029098287 -0.10699965 0.30562216 0.36562714 -0.12976483 -0.062546656 0.20209894 0.37924713 0.43158638 0.2574875 0.47963908 0.50559455 0.15259412 0.48557127 -0.007626742 0.43845925 0.012294054 0.023129411 0.0007338077 0.32545263 0.32859397 0.08257847 0.081755176 0.08910615 0.061558142 0.063619666 -0.13446167 0.018477187 0.6201037 0.62990373 0.17513388 0.3033855 0.6052774 0.64396966 0.64055437 -0.024941064 0.12619625 -0.07323591 0.5639931 0.6185926 0.2861014 0.17078277 0.4247332 0.4136659 -0.25904477 -0.21012205 -0.008413054 0.19278833 0.25783056 0.4488348 -0.29901102 -0.05872539 0.050473355 0.15367357 0.28378004 0.38290638 0.12368125 0.0850997 0.20132276 0.23660997 0.29413894 0.090488985 0.22707164 0.25616428 0.14837718 0.45225203 0.1627403 0.09855814 -0.21175572 0.5383117 0.16278093 0.119441696 0.17782661 0.23458454 -0.19230515 -0.12616022 -0.12005087 0.03199159 0.7339566 0.68205523 0.27616966 0.22190955 0.14622222 -0.17830552 0.40117547 0.69451183 0.7421063 0.7583647 -0.022745002 0.07345499 0.18331741 0.19408718 -0.10241137 0.25098538 0.29602936 0.0066362657 0.28766438 0.26864505 0.23661938 0.1447095 0.47019216 0.5742214 0.29451662 0.23580486 0.19743077 0.31419364 0.36944097 0.4311894 0.35796678 0.29262343 0.44242418 0.45609117 0.36760145 0.38318712 0.34950504 0.38844037 0.33305195 0.2864916 0.34872013 0.06974793 0.25843173 -0.1476528 0.3978405 0.40293407 0.46415234 0.38440925 0.4511636 0.04789561 0.31318235 0.5435014 0.4984243 0.4510829 0.47263828 0.48992294 0.46981975 0.39624816 0.15824325 -0.18004422 0.20720299 0.5283579 0.46912968 0.43958122 0.39298406 0.33276254 0.3073265 0.43399203 0.07238252 0.028125875 -0.14234018 -0.20291784 -0.6416853 -0.46957827 0.17467582 0.4006632 0.12901717 0.0968838 0.21052729 0.30297622 0.35115638 -0.0136421025 0.22201622 0.050987005 0.14472094 0.3062886 0.3988808 0.46205586 0.5001917 0.007659182 0.018880151 0.44975248 0.42394155 -0.002521433 -0.023694307 0.37151223 0.36608142 0.047254063 0.058128536 0.2927577 0.06617112 0.08453345 0.39582005 0.5285601 0.5320331 0.2019225 0.055375602 0.59334505 0.608537 0.24898586 0.16780496 0.062342428 0.62928164 0.1616352 0.12056125 -0.0449477 0.051506177 0.32406098 0.57959807 0.595932 0.13318007 0.14879626 -0.09931876 0.15707588 0.32567075 0.51222104 0.20105805 0.30128834 -0.023714792 0.23332836 0.24405612 0.33705574 0.21451275 0.342378 0.30575725 0.14264466 0.222818 0.27982497 0.041436546 -0.09750071 -0.14006074 0.17600131 0.23928401 0.3098725 0.347819 0.32667914 0.23517117 0.13434997 0.26438233 0.2998609 0.3083555 0.30222595 0.31065464 0.2457852 -0.3964812 0.42328635 0.22361837 0.18303128 0.13719736 -0.34531975 -0.036889475 0.10070201 0.64258826 0.07015234 0.29973382 0.5714116 0.6327429 0.6903477 0.04783857 -0.019205831 0.6515044 0.08480527 0.04676105 0.014749698 0.14473936 -0.081761956 0.040087327 0.0684315 0.20136629 0.22143136 0.03644461 0.28556925 0.28476208 0.1824367 0.18879935 0.16763346 0.5319186 0.6235816 0.6780993 0.6466342 0.42532012 0.49230614 0.47783318 0.29378584 0.28051984 0.3321458 0.41091585 0.43137646 0.27101576 0.4213894 0.30216524 0.22412197 0.16062658 0.101346985 0.22993931 -0.081596695 0.032818347 -0.14999527 0.2465559 0.54762316 0.4897182 0.47648197 0.38313738 -0.07553265 0.32548037 0.30063933 0.25130406 0.5869262 0.58958185 0.5902673 0.5428732 0.50191116 0.42669228 0.4488352 0.49170345 0.4799051 0.35976106 -0.07558646 -0.18456274 0.2844854 0.5575553 0.5569191 0.5557155 0.28212947 0.23605973 0.37253916 -0.09426287 -0.09049858 -0.50124454 0.3019104 0.48239967 0.47942418 0.030771349 0.07871131 0.18646786 0.28540415 0.364232 -0.017289475 -0.23042484 0.060740676 0.1422073 0.27439874 0.20220365 0.40131927 0.028457887 -0.00097502023 0.26831046 0.29598433 0.052687757 0.156258