# vtk DataFile Version 2.0
Really cool data
ASCII
DATASET POLYDATA
POINTS 8340 float
45.474205 29.383583 33.49717
45.462006 29.913027 34.749756
45.453117 30.213703 34.05233
46.180805 28.263449 32.16307
46.12148 28.20067 32.5985
45.8965 28.987469 31.915813
45.67315 28.840118 32.470608
45.566074 29.059456 33.321415
45.88496 29.352371 31.895935
45.58382 29.478495 32.296368
45.589806 29.18806 33.545666
45.689434 29.417341 34.981606
45.895885 29.993464 32.017826
46.098465 30.590345 32.4275
45.72457 30.50975 33.648014
45.686066 30.333988 35.256588
46.085133 30.090744 35.905495
46.19983 30.729313 32.208828
46.22146 31.132507 32.978542
46.340076 31.511108 33.399586
45.753006 30.817396 34.14747
47.327778 27.076279 37.752193
47.287395 27.06246 38.300213
47.36168 27.120098 38.97586
46.783073 28.122774 31.897728
46.7209 27.826244 32.52094
46.822086 27.721554 33.377216
46.93385 28.073616 34.247875
47.24532 27.508781 37.54266
47.068954 27.738401 38.648388
47.183163 27.357573 38.960583
46.944363 28.831717 31.194254
46.45423 28.557478 31.698042
47.02656 28.384192 38.59343
47.137867 28.554848 38.927593
46.391933 29.495682 31.391674
46.46121 29.693132 31.459158
46.994434 30.090271 31.247898
46.51505 30.159517 31.55195
46.838795 31.234428 32.094173
46.446774 31.19894 32.71341
47.198322 31.959871 37.93055
47.136852 31.954165 38.51661
47.124565 31.790335 32.541016
47.095203 32.23299 33.588474
47.30258 33.27673 37.09828
47.20448 33.353264 38.550716
47.33095 33.249897 39.188892
48.019257 26.314589 37.78356
48.086166 26.188225 38.547535
48.190105 26.198462 38.96626
48.39224 27.107477 35.623245
47.732265 26.580097 37.774017
47.619804 26.63969 38.536987
47.920815 26.64253 39.207047
47.230236 28.063139 31.789658
47.22002 27.49266 33.27431
48.091213 27.784739 35.83957
47.572685 27.296888 39.29856
48.103996 27.616846 40.02277
47.553932 28.818245 31.10528
47.33975 28.407282 31.454428
47.644707 28.462852 36.710396
47.52817 29.54733 31.012413
47.709003 29.879303 39.710285
47.774227 29.605991 40.142635
48.16001 29.224188 40.68462
47.596973 30.078169 31.14234
48.27002 30.277748 40.440117
47.449333 31.292597 31.965523
47.55553 31.947409 39.608162
47.595566 31.877882 32.31785
47.51569 32.29605 32.960377
47.42012 32.622253 39.574562
48.016037 32.4483 40.035618
47.501724 33.513435 39.19977
47.921696 33.92375 36.024925
48.088974 34.558453 36.503754
47.66709 34.399666 37.54194
47.687756 34.334187 38.554195
48.096493 34.55714 39.26102
48.007412 35.131622 37.683727
48.071487 35.27923 38.38306
48.081165 34.97927 38.982998
48.533524 26.024145 38.367905
48.457798 26.22835 39.187622
48.968136 26.398876 34.220753
48.54101 26.464573 39.536793
48.65601 26.671677 39.786617
48.86684 28.156511 32.161644
48.32434 27.500101 32.898556
48.102634 28.780216 31.232916
48.387917 29.72646 31.126503
48.540028 30.441204 40.609924
49.330544 31.96884 45.979446
48.406345 32.487392 32.76638
49.055225 32.29094 40.41415
48.715847 32.9576 45.55394
49.21936 32.918076 46.686035
49.04476 33.38707 33.582653
48.547592 33.271957 39.896626
48.903378 33.476246 44.228653
48.724525 33.51923 44.614807
48.58696 33.588478 45.57418
48.76906 33.333874 46.145557
49.27227 33.149307 46.783367
48.852394 34.035065 35.386375
48.371983 33.882504 39.696735
48.950375 34.743076 44.61678
48.685387 34.421864 45.52183
48.693806 34.182354 46.07172
48.7224 35.19547 36.79398
48.495552 35.54424 37.63017
49.036785 35.252815 39.320286
49.006306 35.253204 45.440163
48.683247 35.79268 37.74792
48.69187 35.72726 38.371998
49.379955 35.803265 45.291107
50.057964 25.165482 33.99004
49.97366 25.106087 34.426754
49.921467 25.26928 35.428406
49.945625 25.604172 33.523323
49.66921 25.700127 35.916225
49.717873 25.872677 37.815876
49.404922 25.925913 38.380745
49.11101 26.186426 39.332912
49.63049 27.012436 32.893963
50.042126 27.048735 40.30794
49.141335 27.430094 40.39104
49.328938 28.12918 40.723736
49.462612 28.975557 41.24599
50.46237 28.839476 43.71827
50.40399 28.90416 44.558308
50.230614 29.93754 42.56075
49.138645 30.284216 31.501877
50.081593 30.50504 44.534065
49.905552 30.498804 45.25233
50.143227 30.698414 46.446514
50.189617 30.978489 46.75385
49.72211 31.678095 44.896572
49.620743 31.465418 45.842686
49.67226 31.595201 46.52935
49.80298 31.970133 47.128193
49.4348 31.927197 32.281425
49.817112 32.10497 32.469246
49.46341 33.095726 43.674675
49.920216 32.88661 47.34639
50.16586 32.79336 47.67051
49.765995 33.19142 32.95882
49.72938 33.712387 47.260326
49.853622 33.903572 33.751553
49.0893 35.043346 39.53366
49.4737 35.507168 44.208885
49.889908 35.767826 46.7944
49.74438 36.031197 38.058807
49.796173 36.19616 44.66385
50.004787 36.45949 45.497223
50.107327 36.47943 46.171074
50.24559 36.145565 47.077747
50.546833 25.19776 33.812805
50.566154 25.032328 34.373978
50.70288 25.129171 35.301888
50.2838 25.351665 36.17182
50.46614 25.601545 33.306904
50.53289 25.461935 33.416325
50.57832 25.87665 37.898903
51.245228 25.462198 45.038464
51.22199 25.41332 45.35454
51.4042 25.62448 46.468956
50.272408 26.391832 32.94795
51.068844 27.150894 43.945915
51.008057 26.387133 45.01167
50.89072 26.767683 45.247154
51.226715 26.604437 46.38165
51.067757 27.565453 43.634182
50.59937 28.085815 44.2334
50.700012 27.765596 45.498363
51.007065 27.50513 46.384197
50.68294 28.635824 31.80035
50.57343 28.748682 42.67541
50.49807 28.2158 44.80426
50.773888 28.86677 46.04705
51.153454 28.735767 46.75343
50.382206 29.638393 31.839972
50.613926 29.787582 46.49289
51.196465 29.593124 46.91247
50.154774 30.269022 31.801939
50.31667 31.341463 32.225697
50.142483 32.345604 32.599068
50.648827 32.337494 47.78019
50.4236 32.952267 32.89282
50.800434 33.907238 43.156754
50.881634 33.513218 48.026653
50.47888 33.63261 33.4759
50.35753 34.055576 40.00439
50.923203 34.403503 48.074776
51.12702 35.538906 35.522964
50.689827 35.672264 43.49931
50.39246 35.743046 47.487534
50.530365 35.277218 47.800785
51.181366 36.314365 37.33159
50.24294 35.6164 38.90305
50.750343 36.248005 43.926502
50.705963 36.48586 44.310886
50.715424 36.28883 47.378273
50.962845 36.013504 47.79152
50.535877 36.63998 44.677006
50.54224 36.71954 45.70776
50.666 36.712563 46.304523
50.97615 36.71751 47.04543
51.070633 25.136814 33.93537
51.131523 25.082289 34.55153
51.28549 25.155142 35.2267
51.863224 25.083847 44.734493
51.737434 24.828482 45.621696
51.863552 24.898052 46.2524
51.316044 25.968729 33.257435
51.46993 25.544485 33.737534
51.65246 25.831697 36.836636
51.072567 26.192408 38.457157
51.778378 26.31972 39.026367
51.59875 25.405193 46.633507
51.751846 25.807106 47.09906
51.481052 26.877758 32.745724
51.629974 26.754324 40.031197
51.85525 26.92555 41.33257
51.51892 26.402952 44.2003
51.447544 26.242947 44.344578
51.484516 26.287058 46.835384
51.422894 27.831886 32.183548
51.553288 27.480934 32.42598
51.887325 27.738308 47.06254
51.477882 28.6494 32.004723
51.6944 28.70973 47.01319
51.51664 29.297928 32.11438
51.315056 29.799862 47.007317
51.079124 31.876184 33.142143
51.060436 32.02569 47.772644
51.387318 32.628036 33.729244
51.892048 32.798714 48.126614
51.151566 33.301926 33.675705
51.361076 33.449314 42.88537
51.209003 34.865955 48.14685
51.661102 35.23113 34.915028
51.563293 34.84535 40.32306
51.605484 35.298664 43.28339
51.55739 35.66907 48.036392
51.8323 36.21844 35.620384
51.483387 36.564114 37.685085
51.357162 36.14803 43.95506
51.238705 36.485508 47.460403
52.152637 36.884354 36.489513
51.962845 36.62556 37.798695
51.117077 36.719414 45.001274
51.792892 36.86704 45.780937
51.57406 36.861694 46.650715
51.385963 36.74491 47.06302
52.56973 24.362007 45.74155
51.77605 25.38695 34.333378
52.53994 24.743086 44.781925
52.376556 24.56363 45.27731
52.560497 24.535666 46.186172
52.605347 24.95355 46.928265
52.071976 25.926165 33.879627
52.118343 25.683626 34.525276
52.394623 25.971693 35.439434
52.062126 25.981976 36.424164
52.236362 25.800734 44.01373
52.21363 25.855494 47.54631
52.17343 26.768423 33.265823
52.458443 26.693157 33.59366
52.31227 26.73178 41.06197
52.345383 27.103794 42.32313
52.335197 26.567057 47.595783
51.847805 27.853302 32.35593
52.220806 27.811428 32.790894
52.544907 27.81741 33.246216
52.321564 27.393707 47.393448
51.927708 28.60655 32.237644
52.28244 28.460136 32.711273
51.95627 29.027142 32.290764
52.109333 29.241936 32.729237
52.306713 29.460827 33.62683
51.9309 29.826406 33.137516
51.824104 30.901375 33.830555
52.16905 33.17565 47.99456
52.321156 34.845306 34.655827
52.09684 34.44266 48.21044
52.365253 35.382576 34.86464
52.723713 35.390007 40.24783
52.506447 34.649418 41.246956
53.054466 34.601967 42.93074
52.333 34.985085 47.924076
52.471806 36.284187 35.49451
52.662434 36.517174 38.872902
52.447983 36.384857 44.853996
52.380157 36.438244 47.142597
52.622322 36.967327 36.17042
52.73539 37.136497 36.561935
52.81743 37.27888 37.433662
52.655632 37.17612 38.199863
52.135853 36.792614 45.77757
52.2657 36.76133 46.3365
52.44472 36.669094 46.84983
53.373886 24.369604 46.095585
53.332886 24.8094 44.58481
53.173397 25.029362 47.0673
52.68702 26.18181 34.667973
52.663055 26.635778 33.91582
52.905216 26.663752 34.29984
52.989677 26.592587 35.17147
52.84046 26.84175 37.424522
53.31938 27.242613 38.377052
53.449017 26.943783 39.631935
53.15215 26.870739 41.820316
53.445686 26.58729 47.65195
52.793644 27.672695 33.740005
53.048393 27.351994 34.487343
53.339996 27.856054 35.70433
53.516945 28.015858 36.461094
53.118565 27.459433 37.750774
53.32506 27.01579 47.589413
52.71723 28.742466 33.84193
52.99869 28.22187 34.560833
53.4068 28.055387 35.51292
53.1775 29.246906 35.54175
54.113865 31.621876 48.72392
53.63437 32.096756 48.380424
53.066357 34.869415 34.740463
53.489357 35.500492 35.111496
53.300854 34.812424 43.42401
53.42679 36.59488 35.49606
53.745308 36.64497 39.00176
52.941708 35.77985 44.703217
53.10057 36.291508 45.998955
53.122166 36.33155 46.49832
53.24241 35.884056 46.94686
53.75637 36.885418 35.813854
53.690273 37.37711 36.603786
53.60716 37.447388 37.488106
53.65581 37.292927 38.18515
53.711056 37.046135 38.709545
53.593975 37.539654 37.392883
[...]
POINT_DATA 8340
SCALARS features_00 float 1
LOOKUP_TABLE default
0.64867806 0.53532815 0.5862394 0.71260786 0.7070729 0.728238 0.7344699 0.68288356 0.7223469 0.7190981 0.64874595 0.4666522 0.6774218 0.6023114 0.60875046 0.4726578 0.3788619 0.5835513 0.5332411 0.49033558 0.55498075 0.4768483 0.4958741 0.50428784 0.68847096 0.6661742 0.6068566 0.4295342 0.4595423 0.50590765 0.507985 0.70924604 0.71476007 0.49269322 0.5046618 0.7077941 0.69721854 0.66321194 0.65350944 0.5062064 0.5148654 0.47807628 0.4613338 0.44044918 0.40120196 0.50743675 0.5107723 0.5077912 0.47797352 0.4984421 0.50028765 0.23525217 0.4786798 0.49998003 0.5007309 0.65800905 0.5663451 0.20939027 0.50526404 0.50623965 0.69284 0.67977816 0.33238405 0.69330645 0.28955626 0.34397984 0.4056058 0.66058683 0.24904692 0.48097616 0.39102906 0.4126438 0.40561506 0.47243273 0.4164709 0.51235294 0.4093395 0.44742292 0.5130974 0.54383886 0.5485321 0.52850676 0.57477766 0.57569134 0.4900802 0.4975982 0.437455 0.49779758 0.49480614 0.5086312 0.4822493 0.6532218 0.62945163 0.22950453 0.3953745 0.40854406 0.3493835 0.48989135 0.45507252 0.3732711 0.45744306 0.5946311 0.5860454 0.5529882 0.50269854 0.46027786 0.27145687 0.48850915 0.62584203 0.6097157 0.5637257 0.42352635 0.52834964 0.55966353 0.645761 0.5383074 0.57928514 0.6621207 0.5846366 0.5840764 0.55178964 0.5674962 0.46490654 0.35441852 0.43338645 0.47029522 0.45029688 0.3923507 0.4631299 0.44211155 0.2725101 0.0931208 0.17765714 -0.033800676 0.3916624 0.15442212 0.24319568 0.2935784 0.3051092 0.32197472 0.34462184 0.37565687 0.40611526 0.39819005 0.3946306 0.60633004 0.43776268 0.4321614 0.40169713 0.46808517 0.37429112 0.5230323 0.66339266 0.62941736 0.48645198 0.66096187 0.658932 0.6523731 0.6474227 0.6042279 0.6058975 0.5863402 0.4666284 0.5883776 0.59472907 0.28252593 0.6045894 0.64007306 0.6579641 0.5456125 0.31819764 0.4844219 0.4658066 0.55606216 0.23288353 0.23658767 0.3866979 0.42927635 0.4450551 0.035233453 0.28053105 0.27113563 0.26906404 0.37886846 0.22617283 0.22526379 0.32301313 0.34789 0.39577168 0.40361118 0.40084755 0.48570246 0.44117987 0.3814162 0.30390847 0.5228635 0.4197384 0.5667686 0.6424615 0.6191138 0.40010577 0.3915191 0.6086992 0.63670623 0.66797996 0.6616974 0.6539709 0.6590874 0.66101897 0.67553735 0.6091758 0.6122594 0.59586436 0.6179817 0.68296874 0.69097656 0.58696795 0.60135376 0.40748736 0.2652011 0.30817032 0.6708969 0.62362117 0.53848076 0.22732736 0.16963622 0.4320418 0.4643047 0.5725658 0.47826895 0.49729413 0.39729714 0.47383815 0.25561884 0.46465784 0.19523564 0.3476927 0.36334068 0.326446 0.31343016 0.33833557 0.3997879 0.5759659 0.40774143 0.05144752 0.47751287 0.6543014 0.53388524 0.4374841 0.55396557 0.6818553 0.60965014 0.4965256 0.64420944 0.64195246 0.6727189 0.6823379 0.67426723 0.6074476 0.6301625 0.664023 0.67960703 0.6689794 0.58244133 0.59178936 0.5398908 0.45713952 0.4876351 0.61009455 0.5317047 0.53040314 0.21446219 0.12913984 0.5270998 0.48926556 0.49090677 0.4818595 0.44211918 0.4826702 0.4783348 0.47645405 0.45896477 0.40372783 0.40717208 0.35470748 0.31472597 0.39845872 0.49202424 0.4930572 0.13920715 -0.011003733 -0.017315954 0.6217611 0.5775907 0.45688218 0.5443427 0.665545 0.6501272 0.6568037 0.6259924 0.56921625 0.62534064 0.64038265 0.6421357 0.6315182 0.58686584 0.654741 0.5444841 0.5263788 0.50649095 0.46813112 0.24394417 0.11878536 0.22154161 0.20367724 0.39037442 0.46618026 0.43870294 0.30584678 0.21429318 0.13429087 0.35322836 0.42448652 0.38293123 0.3084256 0.22333252 0.3201263 0.19699258 0.47900537 0.56500494 0.06369615 0.65187967 0.54010934 0.4225685 0.5800284 0.5964991 0.59003794 0.6814013 0.69491285 0.6677269 0.6227145 0.5826995 0.6730261 0.18698552 0.09632101 0.13064289 0.048116326 0.17136365 0.11075756 0.08781126 0.06902603 0.10383567 0.0429343 0.08469728 0.10566391 0.27251536 -0.020892754 0.3493662 0.19606829 0.40694126 0.29805768 0.39279842 0.5066104 0.5112092 0.5529823 0.5451862 0.109970264 -0.00088926405 0.502715 0.65018904 0.5290955 0.44551665 0.6795969 0.6858846 0.6674811 0.6086738 0.23465902 0.23340948 0.2611251 0.6517726 0.07091801 -0.16872375 0.121030636 0.084874704 0.043232687 0.11220955 -0.008616462 0.41333932 0.016633105 0.48143166 0.32086146 0.5082731 0.55284774 0.45950532 0.581938 0.5865858 0.5066411 0.18409081 0.7186353 0.66555166 0.5555937 0.598882 0.3548426 0.1530575 0.6187857 0.65029454 0.6245873 0.5845446 0.6614486 0.66266465 0.65001696 0.6065717 0.10984386 0.12335478 0.52455616 0.2947617 0.12780565 0.21593016 0.6981827 0.6163353 0.39139417 0.76074004 0.15222546 0.39346898 0.7788429 0.62023395 -0.4531931 0.06691631 0.15461233 -0.41538733 0.05234766 0.08726139 0.09535389 0.25696385 0.41462326 0.5273862 0.20420519 0.0879158 0.08816925 0.6221243 0.4749207 0.48892254 0.6543219 0.6019938 0.5450593 0.55067945 0.59679705 0.23996046 0.2438163 0.17312716 0.47171873 0.70110327 0.5805644 0.60039943 0.6127642 0.5382347 0.45822713 0.29136565 0.52946043 0.6279291 0.7154616 0.6065545 0.5335968 0.50498915 0.6218239 0.6267465 0.5875118 0.59500766 0.6068473 0.5602073 0.5304614 0.469858 0.5487374 0.505094 0.5080069 0.49865383 0.4368335 0.3312036 0.42989346 0.4039276 0.08038463 0.12045616 0.107259914 0.07872437 0.2949541 0.4965905 0.34064928 0.07120648 0.18485492 0.30908436 0.45470035 0.5610414 0.72408926 0.49900782 0.59430677 0.6540602 0.61852455 0.61196744 0.5870898 0.4217614 0.5314864 0.59336066 0.23320839 0.1163355 0.08970699 0.23050706 0.03922321 0.549771 0.17106552 0.26121125 0.63228184 0.38346413 0.691192 0.6466572 0.37303573 0.40369457 0.3635269 0.55238366 0.6199867 0.68902993 0.7106875 0.5801367 0.6898668 0.8986074 0.88166404 0.8877181 0.9200078 0.87691474 0.82806146 0.59755385 0.6299377 0.63575846 0.58711255 0.5341181 0.87571436 0.9318841 0.9274367 0.7828913 0.5573308 0.5642823 0.51435685 0.87100786 0.90105224 0.8887242 0.4725496 0.39768773 0.84253323 0.3813846 0.09998375 0.48672685 0.39308253 0.23730734 0.3485765 0.568403 0.6166198 0.66505194 0.57928014 0.7027012 0.58516103 0.4999032 0.6471437 0.6870959 0.53688765 0.48995388 0.5906929 0.6763935 0.50269914 0.33672887 0.19166419 0.29577988 0.24850766 0.30090186 0.29432464 0.43586552 0.25782925 0.30166596 0.5244634 0.5685283 0.32639953 0.3302703 0.34122545 0.67109966 0.66071546 0.35545045 0.3729383 0.33838004 0.34802532 0.43019477 0.50521445 0.60348505 0.67265356 0.6947824 0.55747736 0.5989603 0.6594813 0.8743139 0.87701166 0.8283138 0.7390341 0.80932903 0.85721666 0.73590434 0.6395185 0.64745 0.6485696 0.5473486 0.5130305 0.79118294 0.8251643 0.6105994 0.47954464 0.4451921 0.77315545 0.83950776 0.8368199 0.8249953 0.78950334 0.81740236 0.30853915 0.18519123 0.45645848 0.4840243 0.61265004 0.67276883 0.5209743 0.7166115 0.51963806 0.7586181 0.48500752 0.71923566 0.40172255 0.65582395 0.6813213 0.40060878 0.24281499 0.23293793 -0.11534074 0.19706944 0.31424728 0.33981565 0.34687173 0.41336182 0.40115666 0.3244121 0.36070484 0.3985259 0.43534857 0.44121468 0.3325498 0.34633464 0.38871813 0.49579516 0.49732387 0.37971932 0.42173523 0.58458936 0.84204817 0.78673303 0.6846224 0.6033127 0.5391454 0.7942841 0.79029316 0.5351409 0.48046517 0.33220378 0.54772437 0.75082505 0.5078517 0.45101658 0.32113525 0.6992966 0.7057364 0.690585 0.7030562 0.19079599 0.47831511 0.60094905 0.64541495 0.66910774 0.7014954 0.4063885 0.70304203 0.61414564 0.6833842 0.27969778 0.22122301 0.40354082 0.14586179 0.15068868 0.19215605 0.68641126 0.6610737 0.615785 0.66473734 0.6126648 0.5796121 0.5348804 0.7889521 0.7125098 0.5829134 0.5147774 0.4693429 0.724693 0.31209558 0.4199261 0.67198634 0.6474339 0.098087914 0.37118864 0.36062807 0.5882062 0.15222411 0.545378 0.40172517 0.5756621 0.29890686 0.5682516 0.5846039 0.5922562 0.56544065 0.5893074 0.33912784 0.56932795 0.6209506 0.15935475 0.44594175 0.59494305 0.2534883 0.1528032 0.07217932 0.106934905 0.5553569 0.46417385 0.5458367 0.5668355 0.41261715 0.49001625 0.5491783 0.32517973 0.3769445 0.65744036 0.62268406 0.58043045 0.4823027 0.43441606 0.7560426 0.69915104 0.6648433 0.59686977 0.53134656 0.4227969 0.6004156 0.7076646 0.8041959 0.7771626 0.72880137 0.6666205 0.5765456 0.50252616 0.42467365 0.6151149 0.6993856 0.7779 0.8613887 0.7868557 0.74600875 0.64335406 0.54961395 0.49566698 0.70972556 0.7903788 0.8229946 0.87141347 0.74237716 0.65104276 0.72222936 0.7949728 0.63622063 0.5260383 0.46137214 0.3765909 0.2981944 0.6046452 0.14222433 0.4616456 0.63016987 0.54184204 0.47782582 0.03508946 0.44912612 0.35502234 0.24654189 0.43037722 0.53346896 -0.19293043 0.5065759 0.55203503 -0.25242156 0.5085245 0.5472249 0.10822938 0.37754726 -0.055777334 -0.047911778 0.3134407 0.29931477 0.3869887 0.4653803 0.5643173 0.6004372 0.35017127 0.34603763 0.3232571 0.4374316 0.5058546 0.5760374 0.6131189 0.34374133 0.3740744 0.3487805 0.41446686 0.46682915 0.58259916 0.6015682 0.61029696 0.36824614 0.3726327 0.34653974 0.34704602 0.41363466 0.54468596 0.58848375 0.34590745 0.35191536 0.29590052 0.31858915 0.4175735 0.39121547 0.64910173 0.5795508 0.4825278 0.36631095 0.3024839 0.27574003 0.27905104 0.3138491 0.32430243 0.5816487 0.72469926 0.74725235 0.38042617 0.3170423 0.26666117 0.37742203 0.70830834 0.8073137 0.88747525 0.7826041 0.78547096 0.3747639 0.33372292 0.33809137 0.4637211 0.56532204 0.89189756 0.9252595 0.7933406 0.7940438 0.5640928 0.431903 0.37890887 0.34390256 0.5892502 0.6652261 0.85877585 0.89444876 0.9225006 0.782925 0.71852493 0.59565556 0.48798347 0.6105147 0.7151649 0.7815112 0.8248822 0.85753906 0.6775261 0.6896599 0.71533644 0.45976308 0.41107637 0.34483117 0.27680814 0.60457766 0.6651252 0.7051066 0.6957873 0.51197714 0.25427905 0.6579263 0.6531382 0.46387038 0.4464658 0.48647094 0.41641366 0.3922168 0.2830406 0.37897927 -0.0022326857 0.21450184 -0.13438249 -0.054220043 0.322957 -0.2821727 0.36248815 -0.22812063 0.4446682 0.089827225 0.5702021 0.59665704 0.64077586 0.660907 -0.025036912 0.055504166 0.48796588 0.44446522 0.28537887 0.23613791 0.26540673 0.2790035 0.25129092 0.26351067 0.28355512 0.38024727 0.24697489 0.29491448 0.29614434 0.2580871 0.20570341 0.17853211 0.24284531 0.40072262 0.46373346 0.5332818 0.5436772 0.25503555 0.32048252 0.26850298 0.23856416 0.14469936 0.26135197 0.60241663 0.59748447 0.24264064 0.32375592 0.2609828 0.14446068 0.6006641 0.20869003 0.2251885 0.563337 0.24397334 0.18840049 0.23650396 0.3538686 0.44766432 0.18276505 0.1296283 0.23389083 0.8174102 0.8792714 0.70664364 0.26660183 0.22902386 0.21914607 0.9418131 0.7568516 0.2915498 0.2812813 0.39793992 0.9745607 0.77705896 0.34693775 0.32924443 0.43350086 0.46529263 0.87057257 0.928836 0.77298373 0.43831033 0.35689747 0.3583655 0.3731978 0.5634551 0.66222715 0.724175 0.77361625 0.8175088 0.70395505 0.56912696 0.42788517 0.66626084 0.71151155 0.6779825 0.7225201 0.7210803 0.70723057 0.37430274 0.28515688 0.2627517 0.5280427 0.626142 0.71700823 0.6910658 0.4732231 0.2719733 0.63562566 0.40812743 0.5407968 0.3473315 0.24684694 0.026567843 -0.19673744 -0.019595943 0.22746381 -0.08920516 0.37325174 0.3626545 0.058467913 0.43421534 0.5781907 0.6350946 0.67521715 0.01903408 0.6035252 0.67194855 0.71590745 0.72828615 0.696475 0.048407894 0.07161762 0.10395299 0.73733723 0.7845361 0.35052302 0.44184723 0.5482378 0.58226335 0.24636842 0.22013254 0.21834454 0.2599658 0.22898759 0.24886961 0.23171267 0.24082726 0.28044134 0.2983724 0.21269965 0.20960985 0.21414855 0.31454575 0.07980283 0.18862757 0.44159782 0.4676078 0.48877835 0.5177556 0.10908102 0.51990134 0.08747497 0.53293276 0.49119025 0.34368372 0.7345401 0.76682556 0.45575786 0.36676037 0.30763125 0.8554485 0.6979239 0.6440047 0.919086 0.7308599 0.3041073 0.27342156 0.41661024 0.77562964 0.88667685 0.7539488 0.735494 0.3331566 0.3305719 0.32666612 0.44230235 0.507877 0.5709754 0.633047 0.6818341 0.7408443 0.72602856 0.6719787 0.46096653 0.33808395 0.293277 0.61113966 0.626999 0.65758145 0.72447455 0.70475554 0.70024323 0.4381817 0.68685466 0.24307883 0.26665962 0.11433595 0.21556728 0.64616656 0.6217929 0.29130468 0.53968453 0.41028136 0.080480576 0.19760486 0.06933358 0.11150931 0.30678955 0.31529045 0.19500118 -0.03444548 0.46454734 0.36998558 0.38471562 0.48798403 0.49762312 0.56997025 0.5416988 0.58012176 0.44852552 -0.12376181 0.066796914 0.59728384 0.61617285 0.5757338 0.6190277 0.061991993 0.16724345 0.60397017 0.67194796 0.7333412 0.81283283 0.80894005 0.2817954 0.5291065 0.55894846 0.65889406 0.60314447 0.70402074 0.28643006 0.2633282 0.24894796 0.24667788 0.25462133 0.27864528 0.26304874 0.21384871 0.11085798 0.2842183 0.28448534 0.23937866 0.24309036 0.2530211 0.25098893 0.116257526 0.13350928 0.18462586 0.2371727 0.2768168 0.27876183 0.25966173 0.21042635 0.16677955 0.29405588 0.14128107 0.08522031 0.07529775 0.28273055 0.46241468 0.4483775 0.14357468 0.38167992 0.42205185 0.49858257 0.48759806 0.1764296 0.009718997 -0.123175725 0.38861686 -0.14503887 0.32566804 -0.22712505 0.40172437 0.5572926 0.21830808 0.55785364 0.66591585 0.48286915 0.579134 0.7198288 0.52804863 0.2183366 0.56484216 0.6392273 0.69009364 0.2339085 0.3898753 0.46932143 0.5340496 0.57462204 0.6334773 0.7193082 0.6265782 0.38912252 0.1728274 0.19633947 0.22919345 0.6930337 0.66916096 0.6858668 0.3580165 0.6651011 0.09648679 0.1038149 0.21739699 0.6307008 0.026741073 0.58672905 0.08216475 0.5027381 0.057925098 0.23072967 0.08142986 -0.1544365 -0.17313921 0.37412345 -0.11039067 0.44279295 0.36265093 0.5109322 0.5177784 0.49830464 0.5266294 0.609661 0.63182837 0.53817576 0.5762507 0.51109743 0.2251643 0.62395555 0.65572673 0.63340974 0.72691905 0.79262686 0.70759475 0.5554152 0.67580396 0.67348975 0.6890795 0.7353529 0.78424907 0.7888465 0.75180817 0.74065316 0.6228007 0.5701885 0.6237898 0.54671425 0.51914495 0.71110773 0.5543996 0.4693367 0.4294824 0.40665543 0.2710411 0.29600966 0.36044848 0.39989245 0.4120196 0.35592192 0.1295548 0.26797023 0.29462522 0.31201422 0.29681116 0.23403585 0.22484243 0.2591731 0.2060192 -0.033672765 0.14390308 0.22644857 0.28460428 0.2837522 0.5255436 0.5191381 0.52083933 0.50076985 0.21837008 0.2636057 0.24851885 0.5139284 0.4831369 0.4691659 0.4823457 0.21377718 0.21109757 0.2037147 0.4893617 0.44622415 0.43018138 0.42576036 0.23692855 0.2431286 0.18854526 0.48910034 0.4572506 0.45203394 0.42978525 0.4303754 0.25104183 0.28228045 0.26663113 0.13533643 0.49135342 0.49430192 0.49824074 0.516202 0.56130433 0.33539307 0.28401715 0.15127645 0.5052561 0.5276154 0.5467099 0.6288669 0.5956899 0.2338638 0.1908215 -0.13103825 0.18641372 0.5354736 0.60795534 0.6548871 0.6619695 -0.17098325 -0.2647986 -0.17902602 -0.23388076 0.11033283 0.14348716 0.43675447 0.48677292 0.03603802 0.47953692 0.51822996 0.35407817 0.02524741 0.48610848 0.50728273 0.5413417 0.7027353 0.59694934 0.16059065 0.01764661 0.031179145 0.06158644 0.2333399 0.36836678 0.50784177 0.52384293 0.5185799 0.14473307 0.25459337 0.6568059 0.3200502 0.25835872 0.19833875 0.3467147 0.6600763 0.6518543 0.062510036 0.1725788 -0.13611856 0.082312495 0.6295016 -0.07565755 0.6124635 0.592372 0.57073194 0.5704284 0.56668305 0.51988983 0.46845135 0.4000309 0.45593196 0.55279034 0.5419681 0.52473366 0.21886544 0.51538014 0.43224943 0.3916968 0.36218446 0.5651059 0.63271964 0.4418913 0.46867144 0.34804964 0.5131665 0.6787557 0.6661855 0.49320275 0.5138487 0.47745347 0.39567807 0.6471822 0.7114636 0.6836194 0.5817656 0.65397567 0.65754896 0.6078551 0.77206755 0.73093534 0.78115493 0.76444614 0.822578 0.8088965 0.78108275 0.797894 0.77406836 0.7564907 0.7419565 0.703954 0.823959 0.7973897 0.73592734 0.6811367 0.63654053 0.60777915 0.8496722 0.8024158 0.7366728 0.5277 0.52319705 0.4944231 0.8414972 0.740613 0.589556 0.41013643 0.32898322 0.41044205 0.48274797 0.47744852 0.70166475 0.5723924 0.38733232 0.22554567 0.18853831 0.39335763 0.35494918 0.54607487 0.5775912 0.5781221 0.5577538 0.33210135 0.08120814 0.15668647 0.19590464 0.25446448 0.26305285 0.54503524 0.53934294 0.5542843 0.52654207 0.49399304 0.07952151 0.23973265 0.23443453 0.52473295 0.52053773 0.4862635 0.17234479 0.19401568 0.49253064 0.4989 0.38926226 0.27767068 0.034895375 0.48256576 0.49006233 0.31486556 0.2796018 -0.15483756 0.48628128 0.48977786 0.44642013 0.4658842 0.47553962 0.51769626 0.6139684 0.5992223 0.20242651 0.18848301 -0.27254388 0.46895754 0.5081132 0.6004634 0.65635407 0.65572464 0.6288737 0.041438997 -0.063567236 -0.27801147 -0.27630627 0.5989905 0.6606848 0.6653455 -0.16910586 -0.22865671 -0.40533975 0.41361248 0.19703044 -0.063081026 0.059013847 0.118868575 0.12502901 0.4014865 0.44090557 0.017810255 -0.03449703 0.12467584 0.26471826 0.28519294 0.28621614 0.28028607 0.32138762 0.31435964 0.30294108 0.29973134 0.29650474 0.3401429 0.21841845 0.34135997 0.292215 0.3293337 0.30277622 0.6453558 0.66658735 0.16003914 -0.05660946 0.61565495 0.6221169 -0.037680984 -0.04920967 0.5895822 0.528983 0.486216 0.23865694 0.118953764 0.4907846 0.5521824 0.57288754 0.571669 0.2259886 0.3825103 0.4946581 0.5677322 0.54342747 0.16180578 0.54454315 0.500855 -0.059463438 0.52075773 0.5331395 0.07978805 0.012819439 0.033389326 0.5759637 0.4739663 0.3811583 0.49235553 0.64198446 0.6634463 0.31938484 0.3586277 0.3376333 0.25285283 0.25757796 0.720026 0.7078502 0.7051025 0.45641243 0.5434028 0.43837202 0.39514488 0.74946696 0.7486267 0.8197919 0.8655633 0.8180974 0.87119913 0.85485435 0.86408126 0.86336815 0.8287737 0.8349704 0.70485234 0.7109387 0.69759 0.7625669 0.7351815 0.7328296 0.7133857 0.65125954 0.8146908 0.79584396 0.5936422 0.85141927 0.39026982 0.50561595 0.5516248 0.5551246 0.86615145 -0.10900538 0.13553795 0.3907513 0.41998774 0.5264249 0.5312306 0.51420796 0.56337434 0.57608044 0.5419962 0.80012965 0.75223213 0.44586962 0.33479178 0.3465733 0.51983404 0.53500414 0.58662546 0.5689683 0.2640217 0.23303148 0.3028108 0.22283825 0.5431627 0.44559798 0.1890477 0.14770451 0.49583405 0.51395655 0.19793145 0.14668381 0.4639449 0.4800762 0.07374085 0.11018041 -0.025522672 0.4203966 0.45098275 0.2505505 -0.09078151 0.44397676 0.21016066 0.2456184 -0.09734903 0.40849924 0.40727168 0.2922861 0.111683786 0.10288629 -0.2336456 0.4218394 0.48556906 0.568214 -0.0428738 -0.08000928 0.5171839 0.6497929 0.6551318 -0.11777196 -0.12914988 -0.1314319 0.20597437 -0.10919416 -0.13632837 0.10213606 0.14983085 0.23659322 -0.17367406 -0.20188445 -0.058983766 -0.11771539 -0.117485784 -0.11300885 -0.023534931 0.63186663 0.666206 0.6773217 0.03100273 -0.11905098 0.6112009 0.6529337 0.6737145 -0.013419427 0.5691018 0.6276892 0.6462508 0.24018046 0.27399117 0.28367394 0.21720095 0.28637543 0.31444693 0.32825923 0.29494444 0.25139442 0.22546981 0.28196916 0.34090132 0.35592547 0.3902032 0.43121707 0.19060382 0.41198567 0.44537222 -0.014030116 -0.004024624 0.3782103 0.5896062 0.6054959 0.13105455 -0.011249032 0.025166478 -0.011266072 0.42403167 0.52498513 0.42852908 0.49421972 0.2705546 0.09409483 0.5313932 0.103441074 0.57044506 0.5582555 0.38514173 0.55186343 0.45982653 0.54922044 0.54798496 0.25269574 0.5484138 0.54797876 0.34966445 0.0077294037 0.08644834 0.07158138 0.66600776 0.23840263 0.71251625 0.7656405 0.73465633 0.8057443 0.80058014 0.8665528 0.8487313 0.86814976 0.9176985 0.921115 0.8962075 0.90070176 0.90086395 0.890259 0.67638385 0.65631855 0.6556444 0.7327355 0.6711533 0.64854765 0.54246247 0.80143213 0.7603609 0.42208233 0.8390014 0.3176891 0.09570898 0.37754497 0.49875343 0.554394 0.55764765 0.83544576 -0.15603147 0.5480893 0.4411475 0.77620417 0.38337392 0.43323058 0.39308733 0.3539078 0.3945598 0.36047223 0.45345938 0.2170067 0.47614092 0.14165665 0.39996305 0.062465206 0.030189056 0.06755802 0.40065247 -0.027270317 -0.021844849 0.39148784 -0.020520248 -0.016757784 0.3611548 -0.063757315 -0.015926486 0.3655491 0.291329 0.14498912 0.017716013 0.011121569 0.33670926 0.23913747 0.20629618 0.26768178 0.41031983 0.5476937 0.58886176 -0.10909657 0.2542114 0.25388694 -0.13974771 0.06718108 0.28051078 0.26771128 0.25402948 0.18538156 0.11016888 0.017022233 -0.13114147 -0.24209633 -0.062532365 -0.0149024725 0.007816523 0.075324476 0.25458375 0.5448394 0.61759984 0.63945496 0.6170064 0.6052953 0.2678163 0.24354154 0