# vtk DataFile Version 2.0
Really cool data
ASCII
DATASET POLYDATA
POINTS 6350 float
0.45014384 22.090609 26.501772
0.4482105 21.94161 27.229595
0.44648492 22.88611 26.108234
0.34545314 22.627323 26.659727
0.32754597 22.593025 27.46027
0.46292964 23.094473 26.063204
0.35057065 23.350424 26.68973
0.31469107 23.302378 27.328074
0.39246112 23.203768 27.810802
0.36375073 27.032074 31.831999
0.41487923 26.787203 32.331947
0.30004728 27.230808 33.375114
0.23029199 27.763752 31.623562
0.011185765 27.722593 32.567505
0.023802549 27.810728 33.501137
0.23260373 27.878695 34.20078
0.21169549 28.534388 31.119959
0.09647694 28.602646 31.576336
-0.098769724 28.541187 32.590523
-0.14781725 28.556465 33.48046
0.057492465 28.726135 34.261814
0.29849824 28.537132 34.684193
0.3377797 29.185387 31.117252
0.28140306 29.38016 31.630163
-0.03548625 29.319338 32.73947
-0.12273541 29.216146 33.62504
0.1392178 29.359291 34.273727
0.27933833 29.936056 32.984737
0.19115688 29.92467 33.57387
0.18071662 29.81126 34.0336
1.2725348 19.89925 26.65407
1.1682508 20.002857 27.402746
1.2943597 19.973766 28.169655
1.1883632 20.848534 26.08998
1.0608809 20.551102 26.607407
0.99518013 20.489826 27.578348
1.1590058 20.70965 28.358038
1.2652452 22.212215 25.043764
0.9082407 21.812597 25.801607
0.6578691 21.748589 26.581207
0.63480854 21.592909 27.346472
0.9944732 21.599392 28.334547
1.2294049 21.765148 28.711287
1.0628662 22.836473 24.972662
0.71690303 22.551392 25.622412
0.508717 22.386848 26.180294
0.71814966 22.472921 28.157051
1.0872357 22.45952 28.625105
1.0599794 23.456041 24.95359
0.6374035 23.42568 25.70285
0.46484947 23.749992 26.738201
0.48563534 23.709166 27.46689
0.669116 23.207691 28.18262
1.1299067 23.835678 25.032516
0.9553101 24.029459 25.676348
0.7402373 24.008297 26.710766
0.748113 24.045536 27.349852
0.9127211 23.93643 27.963785
1.031428 25.781166 31.98551
1.0429653 25.771091 32.53047
1.0239077 26.115215 33.279995
1.0082824 27.003424 30.93909
0.6688488 26.778748 31.480026
0.59040433 26.437605 32.465485
0.8003547 26.481321 33.518936
0.9026811 26.944183 34.141727
0.64721704 27.656742 31.012697
0.5784802 27.595638 34.473648
0.857299 27.826572 34.887104
0.6070092 28.587563 30.725813
0.8601052 28.450756 35.021145
0.6609634 29.245403 30.803608
0.4926959 29.622543 34.492355
0.62430394 29.307037 34.75285
0.68503904 30.072191 31.865088
0.513471 30.213306 33.55148
0.7847244 30.013288 34.33206
1.3908991 31.829102 30.867035
1.4259765 31.338154 31.442862
1.1341208 30.739485 33.077526
1.4072882 32.02223 31.072414
1.3164685 32.4826 31.648392
1.4185286 32.708935 31.992498
1.4322255 32.893337 31.784698
2.3091762 13.061424 25.695944
2.3602154 12.976734 26.37337
2.4123712 13.054761 26.880157
2.2632568 13.765556 24.97148
2.0965083 13.640341 25.5122
2.1460888 13.539686 26.336248
2.35846 13.374068 26.958801
2.1854556 14.245874 25.012808
2.0722222 14.416002 25.469011
2.0889454 14.337904 26.335388
2.321577 14.159391 26.972387
2.2281308 14.795401 25.353003
2.2810957 14.894272 26.05219
2.2427154 18.951763 26.101149
2.082818 19.046108 26.523342
1.9901838 18.923054 27.16944
1.961501 19.089476 28.195435
1.7031505 19.692148 26.050995
1.5147156 19.71307 26.352566
1.5508939 19.43832 27.785631
1.6645571 19.554617 28.43388
1.6628356 20.601446 25.667114
1.4235585 20.277271 28.597431
2.2671106 20.565584 29.630383
1.6377391 22.02626 24.911055
1.825458 21.316883 29.098587
1.5802135 22.76642 24.636526
1.8528582 23.421448 24.465855
1.5947053 23.46276 24.55793
1.2230743 23.255632 28.643171
1.652478 23.99554 24.821209
1.4682424 24.402683 25.441027
1.2437512 24.411451 26.456865
1.5557612 24.406563 27.427338
2.1728132 25.238197 30.855494
1.6487997 25.239395 31.925842
1.8521596 25.229448 32.734173
1.9760139 25.295452 33.438484
1.9830824 24.655268 26.222218
1.5145831 25.804308 31.002127
1.3839043 25.42791 32.011494
1.4971448 25.539633 32.811756
1.5837575 25.647675 33.40179
1.6779574 25.9136 33.87676
1.3561935 26.755306 30.737331
1.642227 26.562635 34.340588
1.6815492 27.195904 34.774734
1.2939868 27.99115 30.444185
1.4915142 27.6881 30.537588
1.4906242 27.752596 35.043694
1.5282948 28.370203 35.191452
1.3121196 29.17992 30.389181
1.2194905 29.27011 34.99827
1.3879797 29.988379 30.853327
1.1959769 29.759325 34.66645
2.046391 31.75229 29.656185
1.4963188 31.643557 30.667843
1.7496271 31.301565 32.881092
2.035017 32.525864 29.82967
1.6023641 32.802063 30.608652
1.6515162 32.236412 32.59192
1.9288383 32.199097 32.941624
1.9668273 33.225773 30.057045
1.9923778 33.363735 30.431974
1.6359072 33.306656 31.549665
1.7211331 33.045444 32.44951
2.239658 34.26591 30.8357
2.3815804 34.41157 31.212717
3.0407743 12.119897 25.913443
3.0767224 11.969586 26.55305
3.1221793 11.999862 26.885378
2.879904 12.935024 25.067713
2.6217117 12.713131 25.607714
2.5859509 12.520366 26.400558
2.894571 12.591218 27.222242
3.1352615 13.025202 27.742668
2.6374319 13.648537 24.750145
2.5943701 13.353896 27.299973
3.0318816 13.566856 27.904135
3.0023794 14.088165 24.490622
2.7146163 14.467976 24.641865
2.541614 14.301784 27.19981
3.1577208 14.392738 28.246853
2.5906773 14.914646 24.977407
2.7801244 15.460922 25.976067
2.886368 15.367548 27.315327
3.1777802 15.214108 28.064335
3.2497241 17.718077 26.674582
3.1045632 17.997725 28.42297
3.1605928 18.995556 25.173405
2.7445838 18.769342 25.886822
2.4572735 18.691032 27.059124
2.5128615 18.72772 28.804813
2.7205753 18.642159 29.256653
3.1923153 18.818707 30.19257
2.429198 19.974804 25.310646
2.5146675 19.495678 25.591593
2.5854952 20.018728 29.541656
2.9053173 19.640541 30.311745
2.5674217 20.28325 25.185478
2.710251 20.524414 29.926437
2.8235962 21.39402 24.83194
3.1317585 21.058544 30.524467
2.3639596 22.92795 24.46197
2.447286 22.594221 24.633854
2.430693 22.39642 28.982332
3.1899586 21.971085 29.998945
2.119567 23.379673 24.463453
2.3266404 23.589338 24.512144
2.4327612 23.053692 29.053307
2.8862436 23.596506 30.093657
3.0685992 23.905094 31.400223
3.1124816 24.238775 32.442455
2.2763164 24.30078 24.927576
2.801096 24.520147 25.488556
2.477937 24.496582 27.481627
2.3970618 24.1784 28.286352
2.4779353 25.01228 33.207657
2.2161124 24.57437 25.660774
3.300053 25.110762 28.405273
2.5089116 25.9628 30.367598
2.3563018 25.73609 33.973766
2.2661607 26.455193 30.229403
2.7057297 26.535627 34.40737
2.9863358 27.715942 30.066792
2.013822 27.718155 34.984985
2.3593004 28.618528 34.88481
3.4050593 31.007366 26.667131
2.374295 29.982569 33.905037
3.131364 31.515669 26.603521
2.8744452 31.661156 27.659256
2.9108815 31.415474 29.14399
2.3676028 31.439331 29.6196
2.359601 30.867258 33.43149
3.0730574 32.550198 26.689177
2.9429805 32.706646 27.714617
2.7279134 32.73565 28.235462
2.6049647 32.48136 33.20808
3.3477535 33.91261 25.704855
3.1327984 33.559624 26.649223
3.1397767 33.46028 27.367802
2.604676 33.12798 28.960558
3.3215642 34.87209 25.288465
3.1107154 34.711983 25.731575
2.9062142 34.732086 26.526999
3.0323226 34.288094 27.206741
3.1304371 34.517727 28.447054
2.5454276 34.24361 29.711784
2.5471654 34.724213 30.443823
2.497758 34.62891 31.460018
2.3973582 34.3636 31.883698
3.189592 35.396866 25.295158
3.0048227 35.59067 25.646053
2.8402784 35.73585 26.25744
2.9955425 35.245975 27.101154
3.370933 34.763145 28.559517
2.8429658 35.15396 30.468924
2.8438733 35.09641 31.446308
3.286228 35.064034 32.56953
3.3041413 35.797615 33.432728
3.2383285 35.836502 34.438507
3.2383044 36.133053 25.327106
3.0636752 36.200428 25.720673
3.0452216 36.285503 26.365137
3.2273655 36.309612 26.983932
3.1197157 36.45897 33.460724
3.1821585 36.444096 34.392082
3.3855464 36.271065 34.879307
3.2766547 36.625275 25.90194
3.2419822 36.625504 26.081306
3.3404975 37.1608 32.984726
3.2552187 37.31652 33.698833
3.2832856 37.28622 34.180405
3.5529318 11.999694 25.750517
3.5655909 11.743725 26.438778
3.5470755 11.962172 27.161057
3.6058617 12.937181 24.887655
3.3940146 12.382225 27.54686
3.6298032 12.814053 27.908806
3.402193 13.949745 24.474228
3.562462 13.583943 24.59612
3.5657153 13.429854 28.249313
3.967928 13.81643 28.616146
3.2540987 14.251123 24.462051
3.4261374 14.450414 24.521612
3.417489 14.628173 28.50601
3.9021456 14.396344 28.827427
3.2442842 14.844701 24.62071
3.5838966 15.191813 28.522417
3.9217076 15.1352 28.834124
3.7440648 16.228651 25.746656
3.6122704 17.121094 26.509045
3.7405794 17.661278 29.070019
3.7181585 17.98336 30.087402
3.9483695 18.181078 30.753876
3.8016148 18.8593 24.861622
3.8456552 18.718132 31.118551
3.7885208 19.701899 24.823671
3.716211 19.270674 31.361935
4.1255164 19.644512 31.923536
3.6120744 20.769459 31.51483
4.0171704 20.425293 32.08661
3.4055989 21.437243 24.828491
4.028962 21.309952 32.169884
3.3991878 22.595318 24.729626
3.6731653 22.060179 31.47573
3.689168 23.78473 32.095867
3.6977537 24.168722 24.935358
3.5452287 24.734365 33.497063
3.4124742 25.044157 33.738907
4.0271187 25.405762 24.804611
3.478001 25.578495 33.993626
4.0395637 26.41876 25.605587
3.9025078 26.157476 27.320621
3.083835 26.313902 34.27369
4.311306 26.963894 26.841898
4.336455 27.298536 27.827087
3.767624 27.059898 29.040855
3.7678592 27.089315 29.456774
3.7988923 27.621517 34.187798
4.415463 28.874609 25.87081
4.36577 29.07177 26.29749
3.3468163 28.04822 29.696815
3.9612465 29.977016 25.717857
4.1262755 29.595602 26.334352
3.9260468 29.958378 27.26808
3.9950862 30.19808 29.074104
4.376257 29.809082 34.184162
4.0827236 30.556135 25.033028
3.708134 30.651846 25.792051
3.625282 30.410587 26.448536
3.56028 30.550764 29.076525
4.067717 30.685839 33.926304
4.232286 31.378662 24.808737
3.8150966 31.522938 25.46739
4.3075686 31.533007 36.849174
4.2483864 32.04567 37.52525
4.247116 32.21877 38.37231
3.6422753 32.710285 25.580309
4.1637654 32.650517 36.95744
4.006761 32.583294 37.630802
4.0472846 32.752213 38.2395
4.1668324 32.9785 38.767765
4.0413494 34.08199 25.063385
3.5922418 33.50311 25.788937
3.215111 32.891727 33.20602
3.932451 33.256237 37.774162
4.029732 33.34456 38.364
4.219262 33.25275 38.785717
3.7116055 34.81194 25.030745
3.5119631 34.310226 25.469664
3.8309817 34.783123 34.246002
[...]
POINT_DATA 6350
SCALARS features_00 float 1
LOOKUP_TABLE default
0.58246636 0.5739719 0.67097986 0.6360694 0.63211304 0.69217974 0.69084793 0.6802765 0.66167104 0.55513966 0.5589124 0.6078558 0.5530666 0.6123775 0.6798377 0.71447253 0.52249026 0.54968405 0.65236163 0.7262986 0.746691 0.7534371 0.4815485 0.49037543 0.6369967 0.7020382 0.7089651 0.5627234 0.6091764 0.64849883 0.45078734 0.46528006 0.43937784 0.47479105 0.47438684 0.48271012 0.43714848 0.64258647 0.5563395 0.5451522 0.54310477 0.47827315 0.40537593 0.72661173 0.6634338 0.61735106 0.5761636 0.46963271 0.76420057 0.7473213 0.717008 0.69875735 0.6259797 0.7734629 0.78732777 0.7329029 0.70569456 0.66928685 0.5069721 0.4912848 0.50261176 0.48511392 0.5320257 0.54016626 0.5360973 0.58483034 0.51118803 0.6792285 0.6966809 0.48633736 0.7412711 0.45152506 0.6797037 0.71999633 0.39021122 0.55203426 0.59603894 0.3090374 0.31128877 0.40588167 0.34514582 0.4035945 0.4130078 0.41555154 0.91476107 0.8117509 0.7419997 0.91696656 0.9364075 0.82164633 0.7182994 0.8932798 0.904369 0.8246037 0.6929542 0.8658869 0.8310003 0.37247425 0.39812905 0.41555214 0.41048327 0.417701 0.43252236 0.44251993 0.4073767 0.44029707 0.39636824 0.25250208 0.5904021 0.28714767 0.67075694 0.6708561 0.7040131 0.5235511 0.715781 0.75701123 0.7412157 0.6439172 0.45767412 0.45804226 0.41077524 0.4052841 0.7037607 0.5000634 0.47780848 0.45153168 0.44767308 0.45708823 0.45406577 0.5051546 0.55510545 0.42946595 0.41103244 0.6344347 0.69431233 0.3880195 0.7107605 0.3028445 0.6291776 0.23632741 0.27350354 0.28929633 0.279113 0.35859907 0.33460963 0.26989332 0.301201 0.32890272 0.39424193 0.3954131 0.28275156 0.25892735 0.8982177 0.8326857 0.7995391 0.94774497 0.9312427 0.8167596 0.7247485 0.62893903 0.8729383 0.66562104 0.57643783 0.7676071 0.8065095 0.6376213 0.5031201 0.8126658 0.7425224 0.57860744 0.47552985 0.20422527 0.3201235 0.27909523 0.32193807 0.37398922 0.35158053 0.33939886 0.38003558 0.35204604 0.35160005 0.30117604 0.32647005 0.34125993 0.2230151 0.3706823 0.18673964 0.55953443 0.5225956 0.22101551 0.071085915 0.631407 0.6102949 0.25767094 -0.12438066 0.08444522 0.23180199 0.64256084 0.56905985 0.48939776 0.49417418 0.3516394 0.67481667 -0.11539288 0.34415942 0.4008643 0.32372037 0.38981694 0.1446154 0.5516283 0.5895804 0.17602493 0.37555856 0.17422928 0.121416286 0.1749103 0.20280476 0.20152919 0.17179838 0.13049433 0.122788444 0.2217801 0.30075517 0.26161915 0.21985668 0.16393048 0.49847233 0.47546816 0.4700703 0.3348145 0.2228518 0.23234138 0.2532863 0.21991661 0.23299971 0.6208346 0.65638566 0.67255324 0.5270805 0.23573788 0.24470419 0.16605358 0.21386646 0.46713406 0.5068061 0.6992599 0.70623636 0.70333695 0.6542952 0.53397024 0.5563397 0.53482944 0.706072 0.70367885 0.5861193 0.5987079 0.59427565 0.93313324 0.85907423 0.776777 0.8176876 0.7017375 0.61387247 0.6825311 0.67875445 0.53321064 0.45831627 0.6992426 0.64228165 0.46864983 0.42600685 0.6637198 0.43055815 0.39565063 0.43317312 0.11163224 0.28201556 0.375408 0.39838594 0.19929498 0.402766 0.22127503 0.4043069 0.43840665 0.33672267 0.42538282 0.24508396 0.37710834 0.28896132 0.16275866 0.100002125 0.33549547 0.24722522 0.28235722 0.12039465 0.29488474 0.03598971 -0.11320216 0.33970737 -0.13960399 -0.2649861 -0.26544988 -0.107230075 0.19244054 0.0057198703 0.028522434 0.006533377 0.14175813 0.10370247 0.097542755 0.09425497 -0.08653158 0.17579302 0.18097809 0.16133454 0.1424643 -0.12761027 0.16111934 0.17291592 0.378212 0.4902494 0.5607556 0.1575052 0.4663664 0.5400093 0.5930234 0.62713385 0.2502491 0.22889501 0.185859 0.5729011 0.6216743 0.6335805 0.44037175 0.35756874 0.33379787 0.3673864 0.56996936 0.6162907 0.60701597 0.38659632 0.24810135 0.42673764 0.6863759 0.70609254 0.5589554 0.23328605 0.49577752 0.5186664 0.68162835 0.65537906 0.5742594 0.6030702 0.5871543 0.50630915 0.40742555 0.6010985 0.589183 0.43995535 0.85163665 0.80512476 0.7378527 0.7092587 0.64929867 0.5777603 0.42881522 0.42622402 0.40405014 0.33591726 0.28543228 0.092632845 0.31936198 0.39744312 0.07692786 0.4156816 0.43372855 0.14897156 0.46039054 0.11556998 0.46097487 0.44824654 0.3732831 0.2816467 0.26103088 -0.017179988 0.02303578 0.066061325 0.15313876 0.11563001 0.05452898 0.13225906 0.0092645325 -0.013940636 -0.14919347 -0.21883771 -0.023151658 -0.15629318 0.15510881 -0.01353493 0.073971696 0.18769613 0.17556016 0.16723618 0.14177898 0.25266093 0.2795827 0.19806603 0.16992155 0.49980026 0.52616763 0.12476069 0.28431818 0.61733454 0.16051883 0.14515212 -0.051585075 0.6172286 0.3254366 0.5684572 0.5660223 0.58765215 0.4665336 0.61859167 0.13648874 0.29389393 0.6564015 0.6115477 0.54379964 0.42188424 0.4585216 0.43877363 0.3355388 0.2873764 0.51797414 0.5658256 0.54117715 0.3602968 0.32236794 0.29677993 0.6405133 0.5959387 0.5929449 0.5085629 0.48217317 0.49374744 0.4575711 0.3816523 0.2873505 0.3459486 0.14396417 0.15190172 -0.026528161 -0.03718654 0.0104909 0.38858986 0.057918075 0.03873787 0.40234965 0.43836278 0.105284914 0.4576763 0.45591658 0.43721187 0.10775855 0.10182368 -0.15185224 -0.057915926 -0.018765435 -0.07136911 -0.058632478 0.37963563 0.33518428 0.370705 0.37566712 0.29142827 0.33096114 0.3260858 0.25168025 0.10901056 -0.1420486 0.26783663 0.26157176 0.14879362 0.012932811 0.13609138 -0.009217588 0.054950833 0.028324526 0.14557937 0.22134954 0.20312262 0.4110545 0.22878954 0.5333698 0.47423416 0.26654533 0.24765228 0.51986325 0.27972722 0.25901693 0.5166592 0.44374686 0.36114448 0.47533193 0.2883552 0.18551785 0.0997754 0.39303622 0.30821633 0.1566368 0.10766402 0.3071198 0.22794637 0.28353074 0.3034925 0.24404913 0.054579854 0.24944776 0.28112626 0.051116012 0.40568617 0.38261488 0.45434606 0.33694124 0.3597048 0.21119478 0.13156845 0.15686458 0.049145333 0.08677759 -0.16276821 0.037528515 -0.116343185 -0.08752012 0.010659803 0.34945464 0.37071696 0.17488676 0.38138467 0.39855 0.18235752 0.3784236 0.163959 0.25041655 0.00542276 0.163955 -0.056504875 0.23288089 0.22995096 0.15048364 -0.02435163 0.3534279 -0.11770073 0.3458679 0.37394756 0.29421633 0.3069591 0.23053896 0.23040262 -0.049910225 0.11882061 0.13494049 -0.04882288 -0.022494761 0.09724783 0.12824865 0.105997406 0.115748554 0.19443364 0.2655269 0.22012518 0.24940854 0.23890571 0.27288866 0.28017712 0.31762445 0.2912885 0.29592612 0.39588642 0.29093617 0.28068325 0.19817983 0.23731698 0.33247197 0.023243442 0.34694785 0.3418259 0.26384485 0.16681871 0.33961725 -0.35120732 -0.3402944 0.35290504 0.08636287 -0.015608866 0.47936633 0.33040076 0.3820165 0.27667156 0.111623675 -0.07542125 0.038580764 0.34248468 0.39272666 0.5382412 0.4805571 0.35148293 0.268454 0.41457593 0.4765477 0.53070784 0.6046034 0.51839167 0.48086882 0.46786782 0.3785649 0.5348313 0.5469812 0.62003016 0.69083744 0.5137193 0.48946434 0.5402156 0.6253641 0.7004118 0.7274935 0.26558298 0.25292218 0.25967616 0.17308338 0.13883969 0.1296431 0.1530189 -0.12314066 0.05996427 0.015955187 -0.1723941 -0.12977007 0.11393992 0.024703626 -0.2326898 0.15412167 0.18938242 0.15914364 0.146808 0.26617533 0.11817466 0.27651578 -0.16350116 0.46516678 0.471421 0.048878327 0.05940555 -0.022966333 -0.100094445 -0.11980744 0.43987393 0.4714363 0.47560507 0.47022197 0.22125259 0.11824414 0.3196243 0.42336988 0.44555035 0.46953744 0.46260792 0.24296944 0.30879444 0.26405734 0.32425302 0.42898178 0.4100866 0.2987053 0.025176048 0.17137001 0.20103768 0.23451647 -0.11604895 -0.045589384 -0.00036145747 -0.00065436214 0.19524124 0.13493095 -0.033942685 -0.039616145 -0.024971686 0.102838606 0.08634746 -0.046765458 -0.04482811 0.10820027 -0.0399854 0.10397959 0.20357776 0.11724023 0.25121087 0.2790787 -0.021447778 0.2887544 0.293026 0.054574013 0.28575402 0.2991894 0.32379475 0.3634874 0.033498988 -0.2340875 -0.29395983 0.36216533 0.34959117 0.27196702 0.21600418 -0.25605035 -0.12993385 0.046663657 0.08711314 0.4374488 0.247011 0.47538847 0.4739545 0.6270992 0.69318223 0.41974998 0.47746524 0.5093919 0.34871608 0.7155733 0.8011922 0.5088598 0.5188837 0.48551184 0.4199885 0.36106563 0.5548465 0.6352938 0.75541306 0.866907 0.86761016 0.5111716 0.47134262 0.43083388 0.56342715 0.68743336 0.8067188 0.89026827 0.12240757 0.19452702 0.18306254 0.18018055 0.09192215 0.09722475 0.14390713 0.11695342 0.11888765 0.1328687 0.19889808 0.09804551 0.11969689 0.3239526 0.23329133 0.00684873 0.36009723 0.3104638 0.11341327 -0.08432281 0.18675432 -0.25399035 -0.3565185 0.051947966 -0.098111354 0.10676029 0.07450354 0.32814083 0.43899256 0.46954823 0.39310426 -0.1845662 0.08775312 0.35259873 0.45693398 0.47276258 0.45722446 0.26744577 -0.097612776 -0.11451941 -0.2961677 -0.012102563 0.46872783 0.46284765 0.2337346 0.08327085 0.07153374 0.4408205 0.12551853 0.3710367 0.17441393 0.045199327 0.011088911 0.11511721 -0.008010168 0.08562571 -0.022322368 -0.012789987 0.08901769 0.052855093 -0.014248805 0.079964265 0.1255717 0.05848557 0.15112174 0.1975394 0.16947694 0.10444097 0.24786428 -0.02998802 0.04008709 0.28437328 -0.054881223 0.45627105 0.5805182 0.17016146 -0.17100471 0.3663969 0.4923966 0.6160959 0.65444833 0.24861795 0.047327973 0.3936085 0.5217465 0.6249023 0.6512977 0.3206389 0.33460295 0.1298024 0.2786832 0.5226291 0.5908731 0.3421908 0.311862 0.25553516 -0.03185451 -0.12919188 -0.036549725 0.14777325 -0.10879788 0.021970212 0.20165542 0.333029 0.43299532 0.3655373 0.73648816 0.35070533 0.41924232 0.78450376 0.46647015 0.30915335 0.18087494 0.83303416 0.498773 0.4226892 0.35780323 0.3032122 0.4886576 0.6749099 0.7899683 0.9022336 0.8817878 0.7333782 0.82987654 0.41270232 0.49314862 0.2752485 0.19000304 0.17784528 0.1714802 0.17358147 0.13984063 0.14204127 0.13991715 0.0893628 0.12677816 0.10909859 0.1666562 0.072076716 -0.027999286 0.19310766 0.31013978 0.20299016 0.12764496 0.08053933 0.07415547 0.39371097 0.3270385 0.009726461 0.05213156 0.40452862 -0.024544612 0.0045087 0.38915223 -0.10950803 0.121637486 -0.07247648 -0.2701099 0.3866319 0.34445596 0.23354404 -0.015347101 -0.147977 -0.30325875 -0.28759986 -0.2546059 0.24052832 0.33807385 0.38104844 0.4177262 0.3995955 0.024733342 -0.18614435 -0.29762775 0.18121871 0.15757138 0.12698601 0.28849947 0.44748148 0.4649225 0.43434012 0.34474012 0.39491647 0.3883099 0.09988194 -0.07403349 0.1299793 0.11619489 0.093863025 0.43284675 0.30146974 0.32986456 -0.12896311 -0.27238193 0.41354266 0.26087528 0.24912307 0.24957398 0.41111374 0.3770619 0.2030836 0.12993899 0.3804554 0.12903969 0.22673273 0.060803782 -0.048738517 0.07540727 0.03419808 -0.03214676 -0.04098352 0.13333988 -0.0077363644 0.18096429 0.16297103 0.22236973 0.16468503 0.1730107 0.1885986 0.20219956 0.22521637 0.4539522 0.22983462 0.5672656 0.60895985 0.18666422 0.6654935 0.2077581 0.648239 0.25139257 0.2568323 0.5858971 0.2867278 0.25008252 0.03293319 0.4540306 -0.085351765 -0.12769172 0.35976222 -0.06629193 0.684862 0.20153499 0.7083819 0.2883032 0.35280532 0.20075662 0.06002878 0.7481718 0.7568023 0.37928748 0.34531772 0.26902282 -0.049383733 0.08660497 0.4085551 0.6695088 0.7943853 0.84571886 0.8421482 0.77778685 0.59644246 0.61014616 0.6111369 0.45264524 0.5520997 0.5882006 0.58320117 0.37878838 0.48311812 0.4560968 0.42750126 0.3386462 0.3302541 0.2702526 0.16785425 0.16395044 0.23069246 0.2987853 0.15171865 0.20384344 0.23626435 0.012611935 0.16489258 0.1946196 0.21421643 0.19849956 0.12117062 0.06924167 -0.03416683 0.14316586 0.16019367 0.3832094 0.33546084 0.26770967 0.19904664 0.17840874 0.40064672 0.4048931 0.0594424 0.15828358 0.38266557 0.047343746 0.36954367 0.32203525 -0.025773838 0.032120634 0.18073031 -0.11986124 -0.42031932 -0.34145123 0.50556 0.6443579 0.7064295 0.3487981 0.22505553 0.14450987 -0.13894095 -0.2993018 -0.39398444 -0.35787416 0.24646235 0.24621958 0.2263422 0.18534347 0.18373713 0.6455103 0.30658564 0.34895715 0.22576842 0.2122753 0.16125156 0.29369003 0.30809274 0.3066737 0.33231032 0.28673118 0.26795965 0.34548482 0.20536777 0.26714793 0.16725373 0.16875832 -0.010439565 0.05483718 0.112822734 0.08331132 0.6052952 0.18833897 -0.018228155 0.056879178 0.33712307 0.5983701 0.66013455 0.1981273 0.2051374 0.17516443 0.6618784 0.73437494 0.21762948 0.22806653 0.53992456 0.6203982 0.2568427 0.24925232 0.0783685 0.24996273 0.2155906 0.14465056 0.09547432 0.21914473 0.209143 0.28728595 0.112328455 0.6173196 -0.0041641966 0.12655757 0.6616229 0.1701591 0.5983877 0.24396974 0.21802545 0.5213338 0.56967586 0.45509523 -0.11939075 0.32464823 -0.12135768 0.023483254 0.28471938 0.18208435 0.5562988 0.2628383 0.2235242 0.5282553 0.6387522 0.2759871 0.2571165 0.17401776 0.19045515 0.09246342 0.5844938 0.7158631 0.6657398 0.37613413 0.57698 0.7439798 0.5692607 0.6128547 0.61612356 0.5583709 0.4780776 0.5291326 0.57642555 0.565246 0.4632653 0.47756234 0.32741576 0.40699145 0.4492296 0.45639092 0.24631871 0.36182258 0.42685473 0.19163588 0.289149 0.3435328 0.23217887 0.241784 0.17775919 0.06033092 0.01447805 0.2258712 0.21964556 0.37040585 0.34262842 0.23637736 0.35100234 0.3608316 0.2098449 0.25306347 0.32331 0.33990246 0.16123872 0.23321667 0.2944686 0.067328155 0.102185145 0.6532464 0.724875 0.77394176 0.37936872 0.25559282 -0.067061834 0.53680843 0.62794924 0.7403028 0.7931375 0.7996364 0.3774796 0.34901646 0.20291604 0.117418334 0.13864501 0.53396696 0.58576894 0.7980339 0.79782164 0.36408728 0.35747242 0.31894916 0.14858152 0.2496934 0.24760062 0.18482456 0.051800173 0.7520561 0.7407212 0.36480933 0.33116013 0.15194067 0.5795363 0.6921773 0.35565364 0.33268982 0.18471766 0.33288422 0.2936323 0.15591596 0.08952042 0.10803893 0.10408042 0.1081779 0.2584421 0.30628014 0.55611026 0.13888583 0.12939543 0.2577164 0.4977789 0.6129793 0.6694485 0.19974795 0.72730124 0.80628407 0.20502499 0.20992327 0.759993 0.847858 0.2162737 0.2311463 0.35926563 0.5107113 0.63587075 0.74219954 0.86723125 0.26273227 0.26562113 -0.030943722 0.39862925 0.6214973 0.26381904 0.2526685 0.21748945 0.1279551 0.19302306 0.027946161 0.3037088 0.18192124 -0.17579368 0.6096121 0.3714477 0.37670016 0.6185373 0.44623345 0.15900782 0.13215593 0.5375117 0.120295495 0.39796227 0.43821555 -0.089494646 0.28730622 0.31869563 -0.14986794 -0.14671616 0.2849824 -0.12507108 0.072600074 -0.03726214 0.24890468 0.2266658 0.38587272 0.2908037 0.23870017 0.150017 -0.07434507 0.04299985 0.12058973 0.17195974 0.13007842 0.49204475 0.81947416 0.790028 0.46764004 0.3513839 0.5099963 0.5433539 0.56750995 0.83502644 0.83320236 0.7694802 0.4066993 0.2023592 0.2751189 0.37485862 0.4753129 0.51385695 0.5251651 0.8302275 0.82307994 0.7384186 0.63143104 0.32491717 0.51218593 0.5546687 0.7324552 0.78291297 0.7211758 0.13255866 0.4839141 0.5344261 0.60213447 0.63016534 0.63448805 0.024031099 0.47052675 0.47372848 0.5209056 -0.32034656 0.29416996 0.37714484 0.49034855 0.5129845 0.4488656 0.30482522 0.24177435 -0.19984639 0.1914005 0.5602257 0.5758066 0.4943757 0.42692482 0.34110156 0.35933778 0.22479518 0.5892349 0.32086074 0.2535797 0.24218422 0.18206516 0.37373263 0.32015732 0.3007403 0.21751907 0.087547004 0.10644199 0.63273305 0.7247644 0.7634654 0.3711745 0.36099628 -0.23222679 0.024856912 0.31741458 0.5172508 0.7864274 0.7768549 0.20843938 0.058401465 -0.3026334 0.19586319 -0.008549899 0.11480762 0.7765404 0.3183227 0.36175022 -0.44093782 0.09839505 0.19285356 0.22473544 0.03781946 0.7390933 0.35149485 0.37366343 0.060124688 0.6366151 0.36425513 0.3602932 0.3979613 0.32435328 0.05124747 0.14249845 0.022447176 0.045265578 0.3592968 0.39675474 0.057529505 0.49456176 0.5809928 0.6231488 0.1079727 0.6664233 0.7375925 0.15516359 0.83825314 0.86315155 0.17564425 0.1961763 0.86367774 0.89580727 0.21924259 0.89530873 0.9080694 0.26082566 0.5087275 0.6590934 0.83132166 0.88463587 0.25985855 0.24449068 0.1257942 0.354981 -0.00028064102 0.43285656 0.56301916 0.29157835 0.56685746 0.34197053 0.40704387 0.5273598 0.4718452 0.471559 0.44175544 0.33518547 0.36885056 0.4547013 0.4920575 0.41783392 0.37200302 0.18391013 -0.062115528 0.30280185 0.3833602 -0.016649 -0.020167518 0.23246326 0.26949012 -0.036970675 -0.11038706 -0.11140653 0.10455575 0.15912412 0.25865316 0.11510439 0.3052993 0.26469353 0.15934953 0.16214088 0.21823516 0.22725868 -0.08574879 -0.0349043 0.086088166 0.22427544 0.1839708 0.26858598 0.19868666 0.22507077 0.26162255 0.32764235 0.31944925 0.6038425 0.59300935 0.6359732 0.58045626 0.55291826 0.52770853 0.5493554 0.5108432 0.514539 0.49410564 0.40939653 0.8166721 0.8164233 0.7629922 0.42622098 0.4582579 0.4272514 0.43736595 0.39127377 0.122665904 0.17109504 0.33377564 0.4562071 0.3315203 0.760224 0.8116781 0.6875663 0.61774033 0.354132 0.38093343 0.38457313 0.3701186 0.06510422 0.1714404 0.32575405 0.47912702 0.5488602 0.56933105 0.5910107 0.7440734 0.79554325 0.5714264 0.31939477 0.32236174 0.25461385 0.102732405 -0.031917587 0.5780508 0.5932519 0.6732967 0.6908219 0.5553045 0.30277956 0.2758948 0.25327685 0.07425149 -0.10643993 0.5800771 0.5892769 0.5681589 0.56361485 0.37467784 0.17686553 0.14136258 0.1520325 0.4827789 0.521361 0.47793707 0.35844028 0.2920509 0.28271824 -0.054798782 -0.08296333 0.31232178 0.48723072 0.48234603 0.3920849 0.36105615 0.29231822 0.23945239 0.19184285 -0.07140372 0.1359504 0.17765151 0.5714165 0.5819736 0.32095754 0.26142326 0.2952536 0.16468862 0.6328326 0.62448305 0.5251884 0.3530876 0.3140984 0.27509102 0.15015583 0.18975383 0.64268386 0.63598025 0.5261897 0.35694245 0.34449643 0.242681 0.22527882 0.19163132 0.5182159 0.54794264 0.5898599 0.35822237 0.37418035 0.29368234 0.31121784 0.2596179 0.1171798 0.109277345 0.09468536 0.5670631 0.641523 0.6977399 0.078067884 0.31655294 0.37033427 -0.14002624 0.1104469 0.18845591 0.22273874 0.65939903 0.71616244 0.2187923 -0.36854106 0.13005996 -0.103699885 -0.013865977 0.7290915 0.20156375 0.66336536 0.30881962 0.5151104 0.25221407 0.21304674 0.22747758 0.024264112 0.110389724 0.005329907 0.01898536 0.34182096 0.09130092 0.31609288 0.3710834 0.5411136 0.58487445 0.15707621 0.13363807 0.62574697 0.6871848 0.18122149 0.19689259 0.7645658 0.8548403 0.1913649 0.9016235 0.10991129 0.9080446 0.9147804 0.22367677 0.5439698 0.6900482 0.838033 0.8862652 0.90556246 0.21780607 0.20867601 0.7310648 0.18168592 0.47287893 0.19476494 0.2962191 0.4723039 0.36300224 0.38081968 0.4508492 0.41112033 0.47163212 0.25835252 0.3786404 0.4175025 0.49804565 0.4830671 0.43339312 0.34763896 -0.031786047 -0.03556434 -0.0003951937 0.23410073 0.31658643 0.4492731 0.40951937 0.30099744 -0.0043363497 -0.34479415 0.13687606 -0.025914267 -0.05068161 -0.051901594 0.01741071 -0.12759145 0.08754983 -0.04730303 0.13400836 0.11302723 0.1012104 0.16587068 0.13568822 0.267054 0.018919982 0.2252714 0.1695426 0.35500628 0.3319656 0.3349596 0.17754856 0.23632732 0.25873944 0.24318475 0.36362657 0.3645999 0.3468384 0.33589894 0.269527 0.20912269 0.3675205 0.33273864 0.6537727 0.6442645 0.6979567 0.6727137 0.641307 0.6276948 0.5927104 0.69026923 0.68426234 0.537315 0.48614714 0.7642696 0.5741302 0.5778738 0.3996496 0.18115768 0.15095703 0.1284266 0.7967689 0.7997899 0.7247275 0.6309773 0.3993856 0.38466212 0.06170296 0.1225318 0.13714302 0.23596612 0.7328129 0.77099574 0.4256546 0.3410179 0.3046025 0.31925195 0.051454246 0.15719596 0.3139909 0.4438608 0.53895223 0.5946443 0.5853392 0.67111325 0.36010227 0.17544833 0.2675439 0.27002445 0.584371 0.584622 0.56406695 0.24003842 0.5727303 0.5444371 0.497163 0.46095562 0.44027156 0.21276829 0.17717984 0.15956345 -0.11821623 0.12971143 0.36194366 0.44532993 0.20554078 0.16114295 0.22140306 0.21624419 0.15463434 0.08941515 0.5900964 0.085668765 0.18130913 0.19005856 0.1500532 0.017323138 0.61779773 0.63234055 0.11689085 -0.020575874 -0.004932178 0.60762393 0.5597968 0.18421295 -0.023665812 -0.16820252 0.49691877 0.5435877 0.5584749 0.49128655 0.33693358 0.3368367 0.16805242 0.12666413 0.13465 -0.104052596 -0.09774951 0.33727717 0.47721142 0.58555853 0.58158505 0.31895906 0.29099455 0.31531897 0.09459001 -0.33354104 0.57771546 0.58626676 0.22880955 0.10622444 -0.316163 -0.23827437 0.5697763 0.1019577 0.4982192 0.08346258 0.17073402 0.30400094 0.09830257 0.16579628 0.18724784 0.059952 -0.013284616 0.22738284 0.04