# vtk DataFile Version 2.0
Really cool data
ASCII
DATASET POLYDATA
POINTS 6380 float
-13.635192 26.071133 -1.1954942
-13.621928 26.015488 -0.67671645
-13.693378 26.525558 -1.2845691
-13.755774 26.593636 -0.65296304
-13.616129 26.640972 -0.08272116
-13.671943 27.047745 -1.2510465
-13.676832 27.150623 -0.6046072
-12.659413 20.090754 3.7266335
-12.708318 19.98319 4.5862646
-12.6341505 20.05612 4.9437065
-12.724742 20.772282 3.2400548
-12.8368225 20.644207 3.6637287
-12.867531 20.479641 4.434975
-12.703566 20.575302 5.032016
-12.686637 21.24539 3.2054143
-12.806884 21.42668 3.6363628
-12.844978 21.345034 4.391808
-12.677258 21.247429 4.896107
-12.710567 21.774595 3.7272503
-12.670403 21.821953 4.458907
-12.94076 25.159376 -1.0678986
-12.995679 25.23666 -0.72401786
-13.049972 25.84154 -1.8866613
-13.282436 25.68736 -1.3632495
-13.368524 25.636625 -0.67108995
-13.209597 25.802519 0.020742193
-12.857363 26.03602 0.7541815
-13.183195 26.51109 -1.9708028
-13.547761 26.503756 -1.6194831
-13.287212 26.588924 0.35443467
-12.8391285 26.57658 1.1419485
-13.088587 27.226376 -1.9090499
-13.463198 27.284971 -1.4500742
-13.475642 27.52469 -0.6087931
-13.241048 27.545889 0.2660233
-12.884721 27.321033 1.1798401
-12.926985 27.948074 -1.330124
-13.028735 28.128616 -0.46420738
-12.881601 28.150702 0.39497864
-12.719555 28.014467 1.0768034
-11.669262 12.985475 6.9811344
-11.673716 12.77815 7.456785
-11.662402 12.969407 8.0162
-11.716648 13.663001 6.724572
-11.8836975 13.580772 7.5175843
-11.760172 13.540935 8.087786
-11.820195 14.537185 6.6863127
-11.92791 14.578696 7.4320064
-11.769328 14.226981 8.174835
-11.773588 15.06105 6.578216
-11.781277 15.179549 7.3892837
-11.77682 15.007432 7.916429
-11.902138 19.202503 3.6380026
-11.871983 19.092281 4.399819
-11.97685 19.900452 2.7461457
-12.274128 19.768267 3.443059
-12.391163 19.513702 4.510905
-12.237051 19.758297 5.399378
-11.896091 19.82569 5.8756866
-11.760781 20.63141 1.9681855
-12.259999 20.576937 2.7253885
-12.47456 20.722725 5.464362
-12.257276 20.436634 5.6778264
-11.927505 21.410543 2.0503976
-12.294148 21.50445 2.5747313
-12.426707 21.238369 5.2810707
-11.973408 21.00846 5.7861834
-11.713347 22.31664 2.5328636
-12.24014 22.247887 3.8518434
-12.443222 21.981153 4.680371
-12.620821 25.336191 -1.7619176
-12.448447 25.050943 -1.346361
-12.393698 24.916029 -0.3550493
-12.288892 25.03564 0.026382908
-12.435679 25.809393 -2.2281356
-12.212325 26.023926 1.291154
-11.992625 26.237392 1.7992952
-12.164737 26.67559 -2.5828807
-12.61518 26.529024 -2.379862
-12.5458555 26.874361 1.5674609
-12.296641 26.889147 1.7593138
-11.952178 27.1373 -2.5397007
-12.481701 27.319252 -2.2215397
-12.506339 27.568052 1.5608884
-12.2114 27.452349 1.813828
-12.198378 27.775349 -2.0089474
-12.422265 28.276745 -1.2042496
-12.504272 28.52052 -0.63026595
-12.561835 28.587458 0.3141888
-12.204435 28.200422 1.373739
-12.094369 28.702747 -0.9319049
-12.163313 28.884428 -0.3445728
-12.170739 28.915415 0.22165318
-12.005717 28.763838 0.9905811
-11.037019 12.206207 6.892264
-11.1281805 12.092194 7.4779077
-11.068212 12.181726 8.031116
-11.030595 12.884218 6.36271
-11.345952 12.610683 6.82318
-11.5037985 12.433484 7.4849133
-11.310271 12.67003 8.336996
-11.015587 12.925743 8.907216
-11.095274 13.460241 6.1604733
-11.486076 13.398715 6.4956145
-11.54013 13.747606 8.65161
-11.064008 13.550667 9.115498
-11.38617 14.535439 6.1216807
-11.5204 14.449698 8.621712
-11.156531 14.300985 9.209883
-10.696297 14.476167 9.781763
-11.410244 15.558462 7.787626
-11.422124 15.265571 8.233345
-10.98177 15.068241 9.202665
-10.623496 17.24028 5.439915
-11.476068 15.74377 7.243948
-11.122677 15.733173 7.908368
-10.682019 17.62141 4.3693376
-11.081866 17.918821 5.29827
-10.855075 18.118982 6.143926
-11.120306 19.067507 2.912754
-11.0124 18.458006 3.6220515
-11.433272 18.358925 5.3224654
-11.470903 18.85516 5.8807025
-11.050234 19.722708 2.0393028
-11.331128 19.524239 2.5727286
-11.210821 19.54396 6.3622985
-10.914321 20.915604 1.1103103
-11.318323 20.428568 1.609045
-11.113067 21.526155 1.2137833
-11.532941 21.412987 1.450069
-11.314101 21.13 6.1325965
-11.006659 22.058624 9.756225
-11.214925 21.9076 1.3133672
-11.278293 22.373213 1.7656218
-11.401694 22.46624 2.8335671
-11.553478 22.203997 5.062344
-10.930965 22.620749 8.667405
-11.23 22.689623 9.566744
-11.198437 22.747133 10.460125
-11.008813 22.78671 11.179101
-11.095731 22.763573 2.6976104
-11.136802 23.534811 4.7450366
-10.932283 23.550503 5.581161
-11.219485 23.532602 9.741557
-11.326543 23.477407 10.525506
-11.1219845 23.534874 11.380524
-10.869286 23.548792 11.735417
-11.789322 25.110218 -1.7266103
-11.706333 24.858469 -1.203957
-11.422898 24.794228 -0.621956
-11.725972 25.016638 0.27674717
-10.963275 24.497416 4.7660313
-10.964396 24.225273 5.563166
-10.762864 24.226736 6.1424336
-11.0839615 24.323269 9.97152
-11.114042 24.248993 10.59827
-11.02016 24.192287 11.203864
-10.853891 23.885067 11.740223
-10.922086 25.550072 1.3329101
-10.766067 25.006725 4.9328446
-10.61908 24.832027 6.066992
-10.693983 24.834723 10.584653
-11.494638 26.581665 -2.580639
-11.301793 26.210758 -2.4212794
-11.471716 26.884762 2.2247946
-11.885875 26.97843 -2.6004143
-11.62532 27.27502 -2.415254
-11.074791 27.594116 2.4010398
-10.928572 27.462337 2.7039723
-11.530653 27.916262 -1.923181
-11.63646 28.352814 -1.519883
-11.662129 28.610043 1.3531902
-11.3648405 28.20106 1.9397906
-11.218047 28.872164 -0.97696275
-11.644967 29.072685 -0.3660947
-11.569386 29.146141 0.4006816
-11.526496 28.830181 1.2442617
-10.473049 12.072839 6.881789
-10.634706 11.894575 7.5285797
-10.429997 12.043489 8.200466
-10.684259 12.835702 6.2421775
-10.679995 12.393802 6.567736
-10.446777 12.81382 9.166195
-10.557856 13.6677065 6.0151525
-10.517623 13.401171 9.573806
-10.215208 13.674859 9.9219475
-10.799709 14.376507 5.850657
-10.362618 14.471555 10.061327
-10.758793 15.368656 5.8330803
-10.125272 15.195374 10.075673
-10.438504 16.322456 5.952729
-10.338495 16.341085 7.728635
-9.740183 16.481768 9.44692
-10.360764 17.611668 4.034508
-10.478024 17.417423 4.443679
-10.554697 17.46066 6.213349
-10.33372 18.793373 2.6054628
-10.328508 18.863514 7.166804
-10.025064 20.249973 1.0061301
-10.515406 19.86638 1.4841001
-10.459509 20.58696 1.0347532
-10.50131 20.193052 6.798822
-9.785811 20.76487 7.893347
-10.101717 21.198542 7.7902455
-10.407718 21.391472 9.799725
-10.370574 21.66599 10.185436
-10.074628 22.08249 11.345667
-10.039152 22.389412 1.1984218
-10.301611 23.01925 11.984746
-10.265533 22.862253 2.0411057
-10.340419 23.067987 2.5978706
-10.245225 23.48853 7.0555162
-10.406143 23.545553 12.056832
-10.563872 25.055155 -0.53578466
-10.832369 25.066551 0.1879355
-10.404902 25.309923 1.273836
-10.2234745 24.370111 7.2027116
-10.412998 24.127708 8.716273
-10.612959 24.44316 11.545666
-10.48894 24.19935 11.861044
-10.5688925 25.60347 -1.8187704
-10.352263 25.806292 2.3500535
-9.853561 25.537264 3.822812
-10.549226 25.243237 4.5498147
-10.456835 25.477707 5.694549
-10.311831 25.047525 6.5134034
-9.780081 25.476282 7.6382184
-9.659944 25.338272 8.375001
-10.424258 25.072832 9.46388
-10.290801 25.213627 10.147285
-10.641805 24.781446 10.956692
-11.099232 26.21456 -2.3454273
-9.985529 26.693853 3.0471873
-10.267082 25.881226 5.4796576
-9.588654 26.68331 6.4353337
-9.676695 25.843145 7.108236
-9.853481 25.746906 9.649391
-9.81463 25.709047 10.579242
-10.819303 27.367374 -2.1168017
-10.589001 27.395447 2.777768
-9.742793 27.357302 4.8046155
-9.623855 27.261007 5.1171846
-9.515106 27.824411 15.929633
-9.55858 27.741282 16.275093
-10.649877 27.874132 -1.8480864
-10.987633 28.407417 -1.3835237
-10.098315 28.48808 3.1232784
-9.532522 28.299318 15.672086
-9.563618 28.152353 16.24362
-10.995223 28.751547 -0.8693031
-10.448301 29.34387 0.43513042
-10.697938 29.355122 1.1156001
-10.659765 28.718828 2.1586032
-10.119677 29.558832 0.5840174
-9.951717 29.595453 1.1723187
-9.16408 12.310944 7.137942
-9.927469 11.945102 7.625444
-9.736099 12.084707 8.3232155
-9.853636 12.3440695 9.029492
-9.364805 13.236985 6.353325
-9.411995 12.652173 9.497758
-9.477646 12.931861 9.799891
-9.441612 13.657138 10.256479
-9.356383 14.439323 10.4028225
-9.618835 15.968452 5.6963882
-9.683199 17.297567 4.178604
-9.086583 16.562428 10.300601
-9.500244 18.089977 3.1797326
-9.799893 17.933578 3.4834146
-9.172052 17.07189 9.517503
-9.028475 16.978174 10.174803
-9.017698 17.473772 12.233374
-8.958296 17.829845 12.872537
-9.402062 18.973606 2.206166
-9.321571 18.403917 12.380436
-8.978974 18.590504 13.247119
-9.306514 20.023512 1.049167
-9.250648 19.715961 9.829936
-9.2696295 19.140291 11.370157
-9.235811 19.336308 12.508727
-8.948628 19.486559 13.644654
-8.688193 19.705692 14.37331
-8.913707 20.870369 0.42195734
-9.04099 20.027845 11.235479
-9.034755 20.579967 13.503944
-8.770147 20.422438 14.290671
-8.871092 20.96018 12.833169
-8.69249 21.050638 14.10395
-8.627594 23.776531 -4.156653
-8.823689 23.776796 -3.3816867
-8.562967 23.836405 -1.2047466
-8.907583 23.330269 0.69241863
-9.385916 23.336086 12.081721
-8.723425 24.374172 -4.0894194
-8.822706 24.66456 -3.7980828
-9.176784 24.697264 -2.419621
-9.569131 25.129227 -0.9277611
-9.843293 24.87776 0.37885436
-9.314101 24.950167 2.6652927
-9.352829 24.505348 12.256
-8.628411 25.096008 -4.12237
-8.876789 25.525238 -2.8670573
-9.51419 25.471655 7.4406524
-9.622653 26.88047 -1.9598452
-9.410016 26.031128 8.965007
-9.241822 26.268625 9.518152
-8.988856 26.228764 10.052282
-8.773088 25.936876 12.091079
-9.149357 26.976866 15.948538
-9.193468 26.93741 16.484518
-8.949268 26.887419 17.07179
-9.504663 27.190641 -1.6923891
-9.47154 27.403833 5.526547
-9.070465 27.620312 6.465158
-8.939947 27.331614 7.3379436
-8.752533 26.989977 8.489875
-9.178057 27.774189 15.156898
-9.365546 27.662855 15.615797
-9.448749 27.58377 16.643867
-9.149983 27.516895 17.173878
-8.821553 27.688288 17.58913
-9.166493 28.067316 -1.1717372
-9.421568 28.481127 5.1618876
-8.91971 28.489126 6.191477
-8.761969 28.033255 7.5280013
-9.105158 28.385283 14.946932
[...]
POINT_DATA 6380
SCALARS features_00 float 1
LOOKUP_TABLE default
0.87633824 0.8527851 0.88754064 0.86196727 0.8262469 0.88998425 0.8635546 0.65099525 0.62662286 0.6005747 0.66006076 0.67587006 0.65891266 0.61390805 0.6700686 0.67995596 0.65344584 0.61488986 0.6600092 0.60212505 0.84916973 0.8374022 0.90078664 0.87547696 0.84526056 0.8104683 0.7123238 0.9119422 0.89807856 0.7744446 0.6419392 0.88723385 0.8930197 0.85334754 0.7657451 0.6366489 0.81301045 0.7758868 0.7006359 0.6272431 0.8116828 0.8364493 0.80993795 0.7871764 0.7973409 0.7521516 0.75944746 0.7092565 0.6684284 0.6955522 0.6433822 0.62072563 0.51201814 0.5138394 0.5432515 0.5931302 0.58049953 0.5250164 0.45609337 0.56098914 0.6027691 0.5637313 0.5209655 0.62303156 0.64540577 0.5669513 0.48835093 0.60522497 0.559836 0.54134417 0.88338006 0.8412533 0.76869404 0.73062146 0.9020701 0.57005125 0.48256582 0.804324 0.8770937 0.5628245 0.5198786 0.73936486 0.8057641 0.5599416 0.51443523 0.72812486 0.71994615 0.70434105 0.6670735 0.5628891 0.6601865 0.6497042 0.6344346 0.58854085 0.8120551 0.847059 0.8389646 0.7400744 0.80780774 0.8448057 0.80193746 0.7092996 0.708791 0.7640468 0.6712991 0.63860446 0.6963335 0.6068059 0.58492947 0.52869153 0.55845547 0.55313003 0.5050111 0.24144486 0.56304747 0.50123817 0.3345278 0.3674878 0.3247167 0.40366048 0.37766162 0.4169748 0.40384823 0.43989778 0.45377174 0.32676792 0.5189404 0.516381 0.5809071 0.597492 0.36792606 0.49686685 0.5896668 0.5696547 0.56083286 0.37625754 0.36252487 0.55475724 0.6290073 0.627077 0.5192312 0.15038365 0.11467353 0.5698257 0.6281919 0.61081886 0.5887375 0.8471918 0.74704576 0.6301364 0.6026602 0.14815587 0.13235217 0.12531532 0.4964295 0.56695575 0.58829 0.582456 0.45311064 0.14912683 0.111089215 0.47356945 0.7158309 0.7389829 0.41633 0.74193835 0.68255913 0.39467537 0.34513524 0.6420164 0.64136314 0.539555 0.46412915 0.5718883 0.5989435 0.58030117 0.5426528 0.7744131 0.82435405 0.7805965 0.68828654 0.74763477 0.6456841 0.60106575 0.57443774 0.5123264 0.60602546 0.48607057 0.50196105 0.41652465 0.21229792 0.3164556 0.2855129 0.28544036 0.28560653 0.23417279 0.31638035 0.19754337 0.319462 0.38725042 0.436112 0.10632068 -0.13329226 -0.07091543 0.29599172 0.43857393 0.5047287 0.41062555 0.5310602 0.45668465 0.41444492 0.08032474 0.5342343 0.47609237 0.4607213 0.3691553 0.055755667 0.2214594 0.53779626 0.53212965 0.73421913 0.18435127 0.055505455 0.14422995 0.09593214 0.07055656 -0.03263323 0.037135705 0.2661036 0.32983235 0.50041497 0.71582013 0.06006992 0.07856124 -0.009709746 -0.039390955 0.18247807 0.26544657 0.5700081 0.28575563 -0.025243789 0.00020899624 0.721852 0.7382915 0.523406 0.55806386 0.17048323 0.7126063 0.7385361 0.54685354 0.48569608 0.48125988 0.40018016 0.443444 0.38718146 0.58437645 0.7234435 0.6455829 0.6080452 0.49127293 0.48990798 0.46228474 0.40497828 0.34750974 0.07951443 0.14904377 0.2377721 0.18446739 0.21686165 0.16264859 0.18025468 0.29861996 0.3797063 0.2193981 0.41981152 0.4574402 0.14527449 -0.110096596 0.25554967 0.44905818 0.4858296 0.50646836 0.072703235 0.20554578 0.42477775 0.47052407 0.34311548 0.42290813 0.383313 0.31197032 -0.018627223 -0.22811611 0.37539583 0.4089824 0.40048647 0.26588273 0.22974496 0.2700066 -0.25933194 0.39762044 0.45486248 0.47242743 -0.04096639 0.3275213 0.061605204 0.08926993 0.124701746 0.26530722 0.67624044 0.70606357 0.68947864 0.2918066 0.009049159 0.0056412965 -0.025749363 -0.06886009 0.65902686 0.69075817 0.7457095 0.7346 0.70359373 0.25293803 0.0027391245 0.030178636 -0.017622463 0.66243696 0.70384955 0.74594176 0.7460966 0.40311918 0.35581678 0.19731344 -0.016464472 0.05115239 0.6361654 0.677879 0.71562517 0.7347115 0.32207614 -0.03610021 0.20368329 0.33852494 0.3459173 0.3713663 0.58656555 0.27367294 0.44518533 0.4608236 0.4641574 0.4546781 0.48695856 0.4833814 0.491647 0.6952808 0.744146 0.7637404 0.74325967 0.7981893 0.7907499 0.8175743 0.8134984 0.41782898 0.4244879 0.36673442 0.18554607 0.35389882 0.3079621 0.63518393 0.6288303 0.1290809 0.23577237 0.2827934 0.57820296 0.6281328 0.60002375 0.502808 0.25186715 0.15757984 0.5609108 0.58692336 0.5690453 0.36300668 0.06641005 0.55256635 0.5315573 -0.24635515 -0.16538812 0.17807859 0.25330785 0.5243127 -0.06348925 0.29958743 0.36150262 0.38256004 0.06099501 0.021715738 0.51203716 0.5312443 -0.11041297 -0.050969295 0.51831836 0.52730304 0.27405947 0.041684747 0.012752339 0.49129426 0.36021706 0.2828449 0.18447939 0.104536414 0.39861554 0.42988193 0.39604795 0.3329621 0.2559127 0.17397004 0.08318414 0.022300635 0.172044 0.51318645 0.44703645 0.394935 0.330305 -0.0564175 -0.20183483 0.39270148 0.5558867 0.5047572 0.49036616 -0.21359494 0.537578 0.52502525 0.49082488 0.2357613 0.13665444 0.54830974 0.5074008 0.49988693 -0.06987624 0.21855125 0.57758 0.6575377 0.6045774 0.06349498 0.030199189 0.08127527 0.578807 0.67212725 0.6548611 -0.0011407062 -0.004761547 -0.07372559 0.5874279 0.6676725 0.2562865 0.09892422 0.048927017 0.49203718 0.66966635 0.6295093 0.038848348 0.18588224 0.29144198 0.29307535 0.43261218 0.5386512 0.5462578 0.5988016 -0.03562776 0.21238613 0.43445945 0.42252204 0.41093624 0.4500747 0.50656736 0.49578017 0.47908628 0.39194924 0.45155185 0.48300895 0.5002418 0.47266102 0.55871564 0.56368095 0.6922313 0.391931 0.45781773 0.47471058 0.55830854 0.5715184 0.68318796 0.6867249 0.6139548 0.690513 0.77435327 0.69066894 0.602287 0.77634346 0.8201474 0.7992271 0.7216403 0.7941609 0.81287944 0.7928672 0.1590493 0.61130285 0.5823845 0.50888187 0.07247387 0.07145793 0.100698546 0.25140813 0.18901144 0.60656476 0.6281754 0.58960074 0.5668766 0.43143573 0.10005434 0.07022409 0.15009467 0.26201922 0.5445338 0.5872203 0.3716267 0.1481574 0.020364553 0.04686343 0.11955699 0.50049835 0.5401591 0.34386292 0.15241688 -0.015024409 -0.10713986 -0.015543461 0.46742487 0.29285264 0.18224438 -0.19972302 -0.27696502 0.08422928 0.08977728 0.4159645 0.4082143 -0.2937923 0.368008 0.16071905 0.1381625 0.2930554 0.2696083 -0.47218263 0.4931694 0.5208878 0.3191473 0.25187773 0.20565164 -0.15663604 0.54115784 0.39547986 0.37064558 0.28499043 0.20383018 0.05696871 0.44162655 0.4146778 0.3867391 0.35794502 0.20561175 0.42819348 0.3845497 0.50511086 0.25591996 0.38294226 0.43288612 0.55770445 0.25966492 0.54147446 0.5165238 0.003433168 -0.19771409 0.16783908 0.43209556 0.49883172 0.49498183 0.46459126 0.3390901 0.13677453 0.16922607 0.46959335 -0.06954885 -0.012155324 0.56408966 0.03156916 0.042756885 -0.10950911 -0.21452291 -0.14986677 0.5771519 0.089860894 0.2879674 0.58673453 0.58225983 -0.20189826 0.12605074 0.22503157 0.57846546 -0.053768367 -0.19920367 0.38226736 0.23996478 0.36014217 0.42880505 0.49281052 0.020574436 -0.052334636 0.14083047 0.37972912 0.09837837 0.23153198 0.237685 0.4390329 0.40898895 0.2843116 0.3225798 0.18863082 0.3901525 0.4472701 0.44297802 0.4543304 0.46283478 0.5340841 0.20912912 0.33781585 0.48672476 0.5459532 0.41124886 0.51343066 0.57336664 0.6792229 0.6382202 0.5805384 0.70986336 0.7833937 0.74232787 0.6334692 0.22278602 0.102919936 0.021986632 0.012189336 0.4487291 0.569044 0.58128864 0.5060358 0.4110613 0.29800177 0.017397743 0.052011006 0.0026103668 0.1666444 0.35753086 0.4178638 0.48698658 0.53911483 0.5722424 0.16353895 -0.034711234 0.059277095 0.39399257 0.38904986 0.5015556 0.23801063 0.45320874 0.14522788 0.3777858 0.3561762 -0.16182229 0.102767825 0.2621177 -0.33324933 -0.3768525 0.1709309 0.39811012 0.25673658 0.19394098 -0.21241894 -0.17372555 -0.53948545 0.36392984 0.47246405 0.34281707 0.3261366 0.050812587 0.0064886063 -0.44553092 0.4017773 0.38821352 0.38959396 0.14422224 0.26475927 0.36009985 0.35000512 0.387321 0.39822558 0.39777112 0.39726496 0.38573912 0.47995782 0.4004014 0.52296054 0.31949088 0.4986412 0.39097178 0.24504697 -0.08594516 0.39469635 -0.14288984 0.47598386 0.47840106 -0.039380547 -0.23220971 0.521871 -0.018086188 -0.3134646 0.033886783 0.54553443 -0.029508155 0.015651375 -0.18537897 -0.07904195 0.13383242 0.55411404 0.53055286 0.09847866 0.43181652 0.5421448 0.06786521 0.025264038 0.26460484 0.09686394 0.14758676 0.2515492 0.3183486 0.11859119 0.12994011 0.37143895 0.24215652 0.38686615 0.30899483 0.14922863 0.22699806 0.33836335 0.42875457 0.35251358 0.36063445 0.4791066 0.50099456 0.434635 0.4540736 0.5199198 0.6236735 0.7178514 0.54829293 0.45806095 0.117110126 0.29080245 0.26019484 0.15492979 0.041572966 0.15053248 0.06244077 0.14216653 0.36563766 0.46843398 0.5036519 0.533201 0.4541403 0.34549707 0.26039237 0.25777322 0.025269898 -0.22161785 -0.057091467 0.5249568 0.49222815 0.092972875 0.50219136 0.42160037 0.45498294 0.3759085 0.3044994 0.32135954 0.35688597 0.0442773 0.08061424 0.26981032 0.2206433 0.1247 0.29841197 0.3015097 0.3160259 0.22963198 0.26039252 0.27798253 0.27972713 0.23731199 0.26814017 0.3257175 0.21605672 0.29349577 0.23401539 0.28554448 0.022975147 -0.020580582 -0.24974221 0.3216954 0.11111222 -0.06627771 -0.23487978 -0.48917472 0.41032994 -0.28658274 0.46112958 -0.18186727 0.45961374 0.40931195 0.071321964 -0.0860642 -0.043836813 0.021512523 0.48069328 0.14272264 0.029914875 -0.06682588 0.060442887 -0.04922668 -0.02650845 0.0063716425 0.18633842 0.16114964 0.15790738 0.12583272 0.18065128 0.11100831 0.23439512 0.25470257 0.19171184 0.3834553 0.32817033 0.16914836 0.079559974 0.15685841 0.4063744 0.35779476 0.16272512 0.32914156 0.15635234 0.08134476 0.42910916 0.32248127 0.27991915 0.45996627 0.5321632 0.60468334 0.4596367 0.5541961 0.47830832 0.2666373 0.2596897 0.012349457 0.21769539 0.11701082 0.13603315 -0.030494936 0.037724756 0.11508752 0.43749344 0.4713912 0.3073717 0.08758903 0.08724101 -0.23774014 -0.29601058 -0.13386923 0.46868634 0.52244306 0.5290018 0.37212345 0.47740075 0.4777454 0.1948694 0.40536797 0.43293265 0.123505965 0.29395938 0.26114413 0.25368282 -0.05342794 0.26929903 0.049245343 0.1883583 0.16197452 0.2350777 0.15780398 0.026345514 0.17379409 0.02951023 -0.0037266985 0.23771092 0.09250477 0.21049565 0.16242203 0.19260414 0.2373206 0.05092176 0.26277244 0.065904915 0.29043 0.35613126 0.12241936 0.02016937 -0.023397036 -0.4754263 0.272335 0.38799387 0.13160594 0.09372744 -0.47800815 0.22951964 0.010675306 -0.19595052 0.28573823 0.20057654 0.119647525 0.02495759 0.3465653 0.11112994 0.1909202 -0.14147478 -0.25923163 -0.08328001 0.18997276 0.20893891 0.029573062 -0.06756252 0.039193615 -0.10950554 -0.15158916 0.26996505 0.25823003 0.14523835 0.33532733 0.2594669 0.18645626 0.30041158 0.2762089 -0.028098576 0.016091298 0.16076371 0.41708156 0.4572658 0.44472736 0.35128158 0.29426754 0.30110285 0.261885 0.075022444 -0.014683872 0.48784006 0.47120947 0.42170364 0.38545206 0.3164249 0.30574018 0.45739168 0.436296 0.39960778 0.4420927 0.38177842 0.5270453 0.38986313 0.56277 0.5987204 0.60457313 0.5593371 0.5902669 0.57904524 0.4721232 0.46651566 0.48305053 0.31438166 0.12055871 0.036866523 0.10910925 0.21237458 0.25212526 0.053699315 0.011044163 -0.3753572 -0.023042038 0.29572147 0.012969749 -0.0012630336 -0.2693641 -0.41253674 0.28204608 0.4032148 0.48017257 0.3260869 0.31669927 0.5306606 0.4467358 0.41140926 0.31810006 0.52181005 0.52924526 0.49251407 0.4349498 0.33989248 0.09731148 0.4913229 0.55898625 0.53274107 0.44566625 0.34666437 0.09725759 0.4625535 0.50538135 0.47572792 0.23225671 0.07993792 -0.08943795 0.4117058 0.053838506 0.011172757 0.076699704 0.26791596 0.21960258 0.4914369 -0.083285645 -0.114342675 0.31993684 -0.097089276 0.11134505 0.0035065562 -0.0841538 0.116304405 0.09827467 0.1554109 0.20648788 0.2036885 -0.05755671 0.18959317 -0.07959265 0.28287727 -0.07392494 0.35498506 0.30743983 0.23566997 0.18493515 -0.17581387 0.27719942 0.14439744 0.12278335 -0.1439436 -0.09703758 0.034506746 -0.4424279 0.10040053 0.5212083 0.637041 0.6826296 0.13574618 0.028807059 -0.30690914 0.18896317 0.5748224 0.6512716 0.24557707 0.24349034 0.14440058 0.0923619 -0.023059398 0.10490928 0.23009449 0.3870442 0.4862359 0.5607383 0.27493942 -0.0055439975 0.08487516 0.15114632 0.18936385 0.32896107 0.24061336 0.31514126 0.3750657 0.44329834 0.27007273 0.2975529 0.041041736 -0.05436691 0.3792128 0.32402396 0.3717535 0.40849078 0.25483146 0.25287825 0.18319725 0.014086187 0.15614802 0.45551783 0.42005038 0.419991 0.39148843 0.3135869 0.31973958 0.37205675 0.2974805 0.34899044 0.18602686 0.3628487 0.35645628 0.3651653 0.41045845 0.54557765 0.55254364 0.50398487 0.54385114 0.5767311 0.58255935 0.5071109 0.23718199 0.46528956 0.5343971 0.26693588 0.17729047 0.4631417 -0.03126035 -0.08835877 -0.072613336 -0.117414124 -0.06787892 -0.07022259 -0.013310813 0.019546187 -0.009205907 -0.022849951 -0.041164238 0.08025708 0.14233255 0.21564372 0.10612387 0.051057 0.18597753 0.43362135 0.30332613 0.27550238 0.40361473 0.47604603 0.45957947 0.4189473 0.4570024 0.5039118 0.5312405 0.49719366 0.4501133 0.5535096 0.56940824 0.2990867 0.5673478 0.5194816 -0.23445548 0.48144746 0.43667355 -0.0004637614 0.13703519 0.4792022 0.67777 0.72607815 0.16023125 0.26118213 0.39316988 0.64038646 0.7222823 -0.2108182 -0.17111827 0.6246958 0.6813781 -0.3254106 -0.2988633 0.43643114 0.58260447 -0.23554021 0.20799653 -0.06737522 0.21012557 0.00014629215 0.15371676 0.20373917 0.117772244 0.18502557 0.21940267 0.03633686 0.11145934 0.28393206 0.25306872 -0.22323038 0.36959618 0.3444373 -0.2784621 0.3828597 0.36956635 -0.1955242 0.32066613 0.2619657 0.175241 -0.04978679 0.31701326 0.63566774 0.70985615 0.31687325 0.15303569 0.0019656587 0.7228997 0.73003566 -0.24485564 -0.21063447 0.6746367 0.70396227 0.19879371 0.18250524 0.066651866 -0.1924218 -0.10452687 0.607579 0.23995125 -0.16083296 0.10235705 0.18341415 0.18031387 0.44917756 0.4896028 0.25662753 0.24685982 -0.32171702 0.43029153 0.26343483 0.2422384 0.22894633 -0.035648003 -0.18743828 0.329072 0.31719103 0.36141855 0.4068334 0.22172827 0.21970248 0.26721796 -0.0606125 0.3070482 0.31259227 0.29145712 0.31344038 0.30315742 0.26018065 0.34138763 0.3991418 0.35890424 0.18990421 0.029923663 0.38435984 0.42822424 0.4108752 0.3149349 0.177661 0.25657222 0.1988701 0.4631031 0.43406415 0.39626467 0.28598744 0.5415349 0.54742277 0.47318608 0.37310678 0.6054612 0.60936636 0.57009995 0.48473933 0.44902033 0.41652316 0.4719144 0.27196833 0.071415454 0.21922442 -0.009369555 1.821667e-05 -0.15524957 0.07150171 -0.039909184 -0.055915035 -0.13754684 -0.14947325 -0.04099033 -0.047884557 0.13592471 0.18990563 0.1276178 0.12699597 0.22517598 0.20650092 0.27584007 0.3894988 0.42624485 0.35615224 0.2089021 0.36366868 0.5026989 0.19016293 0.324969 0.53230613 0.5234026 0.21889481 0.5329492 0.54629517 -0.09965026 0.103020616 0.47699293 0.18293914 0.34358928 0.6930876 0.7614907 0.29266226 0.7775217 0.7673484 0.19928585 0.06365441 -0.11280686 0.7282194 0.727326 -0.2821837 0.5195145 0.6039643 -0.101646446 0.3210914 -0.09957739 0.24277988 -0.051107362 0.2143504 -0.0022656918 0.21362972 0.21514678 0.19209617 0.17279074 -0.2591863 0.2516084 0.26028562 -0.16500714 0.33124405 0.32380277 -0.17087251 0.3539101 0.37127078 0.34736443 0.35479352 0.34231755 0.5781403 0.72278106 0.7444916 0.27914387 0.22764656 0.73749995 0.15056683 0.105308145 0.7035046 0.07238954 -0.25328553 0.56008595 0.61995935 0.22485182 0.20885497 -0.25923377 0.027654322 0.21586536 -0.1443736 0.48322093 0.26901305 0.26621866 -0.47148466 -0.013341233 0.43192187 0.44477522 0.26991758 0.2658126 0.24877715 -0.30720285 -0.45731595 -0.06295676 0.34108055 0.4120452 0.23938555 0.22920182 0.22783193 -0.2576385 0.15464096 0.19989966 0.18626037 0.028654516 0.30231085 0.26506782 0.18004814 -0.22912823 -0.08889981 -0.048156224 0.12471819 0.21013477 0.22622225 0.15516423 0.03166403 0.016535612 0.23498577 0.3177645 0.39493227 0.24615628 0.16368912 -0.08018768 0.005021669 0.0824946 0.20008713 0.23014525 0.17842983 0.11760518 0.07680507 0.22213778 0.28139192 0.4576053 0.5823988 0.15404418 0.010605363 0.16167903 0.19873577 0.163659 0.07553839 0.15841353 0.23385967 0.42380977 0.4771636 0.55638945 0.3235006 0.232997 0.13555981 0.23753107 0.25334316 0.20045988 0.18637227 0.20501676 0.17813504 0.31000692 0.45556462 0.51714325 0.63247013 0.6964549 0.31973147 0.2552899 0.30896965 0.35438448 0.290045 0.2535851 0.25215566 0.21704575 0.6688353 0.4566571 0.45488596 0.4385653 0.33050665 0.27985477 0.553914 0.620011 0.6065768 0.5577338 0.4757969 0.41999057 0.61654884 0.5807688 0.5291183 0.48625374 0.44300735 0.21693766 0.2197583 0.20929226 0.23880756 0.23313555 0.23401603 0.21697488 -0.14999089 -0.086341165 0.019692156 0.23729599 0.23412342 0.19307302 -0.15211435 0.07939486 0.19208789 0.3078465 -0.07109731 0.122163 0.29512528 0.30169296 -0.07771064 -0.06429645 -0.055811748 0.21152097 0.22757424 0.19758189 0.061194364 0.24587345 0.15511692 0.08494384 0.30732828 0.16826952 0.1954369 0.29035407 0.08088288 0.47196534 0.40184122 -0.15312497 0.43292975 -0.12557599 0.4504094 0.3860185 -0.021741077 0.25408757 0.3062762 0.44708487 0.38743806 0.4353391 0.6901851 0.7739475 0.27139178 0.7765917 0.16856444 0.009719403 0.6721482 0.7107663 -0.023706593 0.48835638 0.61803067 -0.055185687 0.006433677 0.22145605 0.116150126 0.074056886 0.13308807 0.09223525 0.20884037 -0.009433959 0.19235268 0.16842669 0.040695447 0.122896284 0.19724481 -0.11530742 0.12213847 0.30192083 0.16808051 0.3266493 0.31821388 0.3056221 0.6947787 0.73141384 0.22586277 0.71845335 0.13697773 0.68235123 0.09734599 0.09167129 0.02436112 -0.55206203 -0.3989152 0.53774464 0.61832184 0.15926898 -0.08305813 -0.16508766 -0.20391166 -0.2789271 -0.22729912 0.4485386 0.23247835 -0.21079044 -0.2729278 0.4127124 0.43412858 0.25932372 -0.09772238 0.103127375 -0.05452139 -0.15474197 -0.26980257 0.3339114 0.40397525 0.23562518 0.18431151 -0.048916295 0.07923202 0.14988668 0.027892642 -0.052772984 -0.023848057 -0.026793659 0.17699523 0.21861213 0.17767176 0.16247669 0.07635783 -0.010449283 -0.009770744 -0.004949324 0.14159317 0.12896648 -0.038771406 0.03933871 0.05879364 0.07328415 0.03883627 0.050385483 0.7067151 0.09616705 0.063254565 0.10937863 0.039668057 0.07780248 0.17585611 0.7123606 0.7964801 0.39695096 0.37496436 0.13112807 0.14031419 0.16196074 0.117452964 0.12150187 0.23788737 0.3146027 0.707324 0.78267896 0.82807034 0.46241036 0.37321043 0.17605153 0.18308061 0.39359194 0.5082073 0.6634129 0.7725104 0.8441262 0.863818 0.41440147 0.31227732 0.233184 0.18722773 0.8150413 0.8630589 0.9023864 0.5475371 0.33677515 0.27521932 0.58419037 0.5995759 0.5582863 0.5118091 0.4685427 0.43859598 0.57948464 0.55381036 0.5073526 0.4556645 0.51762426 0.5066922 0.54144406 0.5643388 0.3795619 0.3939237 0.40646476 0.46416187 0.4647115 0.4646802 0.41971174 0.502567 0.31231296 0.3256048 0.3252412 0.28696245 0.30545598 0.2652562 0.32038105 0.23527084 0.21107173 0.21691552 0.21469264 0.26833674 0.1455502 0.03762041 0.118729144 0.046523325 -0.023604892 0.26959223 0.26021934 0.22924027 -0.008340642 0.027669735 0.25862786 0.25442344 0.24044457 0.32388398 0.36425987 0.36273396 0.25203723 0.13251096 0.17000815 0.3335685 0.3504445 0.31058472 0.26471338 -0.0503329 0.30070984 0.31550753 0.2866105 0.24874067 0.2693203 0.23816139 0.21826273 0.27326578 0.17340419 0.24511811 0.19331461 0.31572464 -0.07889806 0.33497977 0.28081745 -0.055449113 0.26105914 0.10683872 0.2700913 0.2801593 0.20106891 0.23298709 0.30856282 0.56328654 0.18241385 0.37619728 0.520388 0.681605 0.20550269 0.6128518 0.2806242 0.09261221 0.4118951 0.27354914 0.16925637 -0.006491752 0.21349597 0.088036746 0.20478696 0.20158674 0.17274076 0.20228487 0.21391496 0.19393572 0.20134455 0.1634078 0.19074398 0.053095456 0.17644571 0.08158842 0.25648648 0.2935192 0.30146903 0.24753062 0.28924602 0.6077372 0.6804775 0.21619228 0.62196064 0.67312264 0.13246211 0.5936818 0.65107125 0.071795605 0.53446364 0.5786618 0.1123458 -0.6583024 -0.25086895 -0.19412315 0.2892001 0.026322907 0.04977207 -0.11545912 0.3570501 0.2702787 0.0035787746 0.43452835 0.36958897 0.24127023 0.089075714 0.12529781 0.38889533 0.28262937 0.0923181 0.5227292 -0.08099403 0.74596846 0.37456876 0.8078351 0.82697666 0.4509192 0.4267621 0.08838022 0.064317994 0.27434957 0.86975574 0.85850644 0.49511826 0.48835248 0.20686278 0.2339693 0