# vtk DataFile Version 2.0
Really cool data
ASCII
DATASET POLYDATA
POINTS 11923 float
-22.564922 -70.34585 47.747334
-22.53767 -70.45664 48.13545
-21.614933 -72.83478 47.999725
-21.630827 -72.793015 48.47845
-21.869415 -72.31988 47.752975
-21.832561 -72.360695 48.384327
-21.875946 -71.9763 48.758904
-21.953615 -71.29169 46.961273
-22.370287 -71.1297 47.79167
-22.320704 -71.15371 48.397747
-22.0155 -71.39157 48.84512
-22.227417 -70.5473 47.055668
-22.438549 -70.49274 47.528248
-22.412397 -70.44194 48.442337
-22.129908 -70.47009 48.90413
-21.64878 -69.74747 46.308796
-22.031229 -69.64648 46.955227
-22.306005 -69.70781 47.66626
-22.273064 -69.70311 48.32166
-21.898489 -68.98433 47.64365
-21.920012 -69.13207 48.197533
-20.805096 -72.976105 42.72809
-20.845573 -72.97809 43.535194
-20.718819 -73.15402 43.90103
-21.136078 -72.96861 47.12156
-21.206968 -73.10662 47.743748
-21.272839 -73.07 48.384647
-21.203615 -72.90494 48.796955
-20.80787 -72.286224 41.876205
-21.004366 -72.494705 42.578285
-21.168018 -72.29708 43.531067
-21.016933 -72.256966 44.151333
-21.580742 -72.66088 48.61998
-21.181828 -72.41022 49.131054
-20.83039 -71.78064 41.790577
-21.16743 -71.626945 42.471153
-21.195337 -71.402466 43.383667
-20.908773 -71.37682 44.789577
-21.20234 -70.99696 46.27346
-21.303715 -71.54533 49.261703
-21.012104 -70.74028 42.57966
-20.865206 -70.26854 43.314198
-20.791683 -71.00951 44.64926
-21.363447 -70.37243 46.118065
-21.301867 -70.42307 49.33125
-20.61763 -69.77318 42.669556
-20.89359 -69.665054 45.682106
-21.437233 -69.7996 49.13391
-20.53005 -69.063614 42.868282
-21.575823 -68.60477 47.99546
-20.917973 -68.88547 48.818054
-20.639791 -67.8971 45.78818
-20.759869 -67.75407 46.471283
-21.18527 -68.0124 47.298954
-21.107208 -68.18712 48.058582
-20.564089 -58.087994 50.864
-20.511337 -58.03262 51.0675
-20.557102 -57.74669 50.80478
-20.577034 -57.646782 51.216713
-19.838223 -73.85062 42.59627
-20.123806 -73.72863 43.39971
-20.191156 -73.5202 47.765938
-20.190943 -73.5094 48.045425
-19.944866 -73.28778 41.66864
-20.481665 -73.3696 43.228775
-20.503122 -73.27144 47.10101
-20.544779 -73.36544 47.666138
-20.497265 -73.33341 48.447124
-20.488403 -72.97433 48.97172
-20.44971 -72.54886 41.500946
-20.477867 -72.34916 49.287395
-20.17972 -71.52799 41.159718
-20.560633 -71.5695 41.51872
-20.548815 -71.76261 49.453587
-20.406654 -71.28148 49.522175
-19.865446 -70.82355 41.183773
-20.191706 -70.44108 41.558037
-20.679962 -70.50073 49.453278
-19.743713 -69.427956 41.28426
-20.11777 -69.404755 41.738377
-20.360302 -69.494606 42.247543
-20.496412 -69.722206 49.24455
-20.071306 -68.70733 41.935368
-20.309635 -68.590126 42.528866
-20.364698 -68.5199 44.53224
-20.283043 -68.60892 48.79732
-19.801222 -67.856255 42.20202
-19.942661 -67.85429 42.723118
-20.114147 -67.62899 43.967472
-20.29844 -67.71736 44.68753
-20.520996 -67.60423 46.49686
-20.321487 -67.484245 47.54029
-20.791464 -68.21264 48.369926
-19.629793 -66.53766 44.32959
-19.641436 -66.461525 45.41118
-19.565876 -60.899025 49.706844
-19.718122 -60.394398 49.725258
-19.635029 -60.640373 50.22585
-19.760757 -58.897194 48.184708
-19.788694 -59.49819 48.58134
-20.081882 -59.123226 49.31968
-20.077755 -58.983757 50.16709
-19.805477 -59.47625 50.897972
-19.697796 -58.21716 47.974785
-20.057985 -58.42882 48.62391
-20.296097 -58.318493 49.464474
-20.464691 -58.196064 50.70158
-20.384146 -58.222954 51.301018
-20.032988 -58.319653 51.89997
-19.734552 -57.82508 48.031727
-19.96521 -57.771564 48.54305
-20.309364 -57.750214 49.66634
-20.449944 -57.35946 50.810074
-20.456017 -57.729107 51.470825
-20.074047 -57.49803 52.099857
-19.677374 -56.943726 48.523262
-20.028214 -56.662743 50.758057
-20.01277 -56.678402 51.458485
-19.890293 -56.93138 52.11301
-19.096386 -73.80387 40.97705
-19.02066 -74.25667 41.606808
-19.129059 -74.36316 42.348297
-19.583344 -73.84597 43.394173
-19.08604 -73.64846 44.252316
-19.369717 -73.64026 47.661854
-18.96864 -73.09039 40.312813
-19.233158 -73.42433 40.765358
-19.19102 -73.334564 44.619457
-19.444668 -73.46109 48.31498
-19.437935 -72.97237 48.930595
-19.36303 -72.53197 40.586845
-19.642805 -72.02641 49.40172
-19.009562 -71.03189 40.36229
-19.067179 -71.26513 40.47576
-19.769491 -71.1685 49.45104
-18.827347 -70.44959 40.313072
-19.528807 -70.20109 40.87941
-19.686941 -70.52672 49.36954
-19.289642 -69.52424 40.915005
-19.42924 -69.75278 49.141964
-19.016394 -68.70211 41.041206
-19.38417 -68.32686 41.53952
-19.546114 -68.66714 48.8237
-19.095854 -68.252335 41.33302
-19.329573 -67.91085 41.842346
-19.583185 -67.590225 42.30972
-19.210873 -67.50772 47.79065
-18.863739 -66.97249 42.78204
-19.286446 -66.68454 43.48898
-19.54284 -66.48049 45.900684
-19.050419 -65.928955 43.84018
-19.33572 -65.78272 44.54988
-19.51753 -66.06624 45.486107
-19.236843 -65.994385 46.245445
-18.780394 -65.214806 44.088253
-18.918522 -65.092766 44.625965
-18.872465 -64.92385 45.288
-18.586855 -62.878338 49.58252
-18.777254 -62.372253 49.351254
-18.882534 -62.23355 50.389072
-18.654257 -62.0633 50.896137
-19.330418 -61.405037 49.620876
-18.950274 -61.311073 51.00861
-19.012373 -60.79238 48.242886
-19.244312 -60.457783 48.708775
-19.551767 -60.766792 50.609856
-19.027876 -60.62745 51.16017
-19.053131 -59.26151 47.446243
-19.563406 -59.607372 48.44729
-18.932484 -58.490345 47.216133
-19.41057 -58.291714 47.62091
-19.473158 -58.27461 52.34463
-19.226162 -57.894466 52.687298
-18.96901 -57.67059 47.3059
-19.333628 -57.578884 47.67246
-19.64302 -57.622158 52.50829
-19.222164 -57.36803 52.756798
-19.039473 -56.895817 47.81204
-19.249187 -56.636425 48.42295
-19.576189 -56.398434 51.817326
-19.293293 -56.589767 52.38486
-19.184576 -56.94393 52.710594
-18.985569 -56.312107 48.782345
-18.910845 -56.08353 49.826237
-19.227648 -56.148266 50.5555
-19.086649 -56.11434 51.540016
-19.102251 -56.323807 52.193905
-18.375378 -74.6772 41.879612
-18.5413 -74.676834 42.456852
-18.432217 -74.163925 40.882435
-18.419127 -74.47503 41.386597
-18.596214 -73.69416 47.37277
-18.844814 -73.60498 48.013916
-18.503067 -73.575676 40.34933
-18.748493 -73.70818 40.564697
-18.466234 -73.38952 48.254498
-18.755774 -72.987465 48.76869
-18.324053 -72.45783 40.00492
-18.854828 -72.49194 49.04323
-18.305489 -71.392136 39.894184
-18.663128 -71.464745 49.183475
-17.924032 -70.45286 39.675488
-19.09497 -70.85175 49.372673
-18.071367 -69.592545 39.99448
-18.514463 -69.50429 40.50798
-18.57012 -69.802315 48.922108
-17.778543 -68.94516 39.901863
-18.714281 -68.358635 41.265392
-18.473398 -68.51474 48.548386
-18.733513 -68.28262 41.240135
-18.517391 -67.6463 41.900402
-18.518116 -67.36608 42.232437
-18.561184 -66.43169 43.19941
-18.314114 -66.3822 47.183556
-18.207365 -65.61081 43.466175
-18.027956 -64.85566 43.775074
-18.429005 -64.60037 44.560368
-18.555616 -64.66292 45.156082
-17.785103 -63.686607 48.75836
-17.93305 -63.690983 50.048595
-18.014368 -64.28282 45.02299
-17.879984 -64.147705 45.054188
-18.224865 -63.396408 49.463196
-18.005396 -63.57964 50.42569
-17.891361 -63.202286 51.230747
-17.630571 -63.07962 51.827812
-17.7452 -62.24785 46.60301
-17.836977 -62.718903 47.158886
-18.191715 -62.790993 48.45887
-18.164547 -62.326225 51.34064
-17.775517 -62.724308 51.85956
-17.984137 -61.575077 46.947716
-18.344257 -61.287144 47.522247
-18.54502 -61.34272 51.186985
-17.812977 -61.84035 51.886234
-18.195312 -60.13095 46.94286
-18.504086 -60.545544 47.607918
-18.163586 -60.5851 51.573364
-17.782358 -59.663097 46.380558
-18.033915 -59.609756 51.663837
-17.769913 -58.443737 46.394257
-18.169931 -58.500793 46.682858
-18.31222 -58.238274 52.44869
-18.477203 -57.958176 52.687954
-18.329506 -57.431217 47.033363
-18.69242 -57.33196 52.835655
-18.449484 -57.104836 47.23431
-18.573704 -56.699966 47.658016
-18.4784 -56.503548 52.481533
-18.598063 -56.90024 52.744648
-18.272837 -56.3431 47.932934
-18.492767 -56.277664 48.30194
-18.275557 -55.983456 49.48438
-18.271154 -55.91342 50.700855
-18.4942 -56.00987 51.445877
-18.597252 -56.28146 52.191696
-17.81444 -74.67259 41.453358
-17.758442 -74.77576 42.426178
-17.764303 -74.13474 40.80104
-17.291874 -74.30534 43.19504
-17.516462 -73.43854 44.174725
-17.591576 -72.89674 45.61759
-18.030043 -73.11614 46.57559
-17.764896 -73.32703 47.27001
-18.037989 -73.297615 48.113407
-16.689137 -71.97045 38.742702
-17.907417 -72.13869 48.775803
-16.690428 -71.77602 38.43786
-17.76165 -71.565025 48.81142
-17.135132 -70.35445 38.90206
-17.588099 -70.82333 39.387238
-17.351086 -70.8195 48.5796
-17.067423 -69.51862 38.975395
-17.637484 -69.70163 39.40919
-16.973465 -69.078285 39.047382
-17.352325 -68.792915 39.666565
-17.69564 -68.50629 40.3488
-17.042603 -68.2153 40.500828
-17.830372 -67.78914 41.677235
-17.545042 -67.56626 48.077934
-17.434868 -66.92645 47.784077
-17.297256 -65.42405 42.67938
-17.265535 -64.69691 43.006172
-17.354116 -64.39077 43.309776
-17.06746 -64.07731 48.403915
-17.382515 -64.0724 49.789284
-17.137154 -63.901817 51.5425
-16.88531 -63.75985 52.12697
-16.94744 -64.116875 43.117123
-17.581085 -63.899357 44.769444
-17.342379 -63.595207 51.72454
-17.091259 -63.329292 52.275265
-16.951023 -62.977448 44.703682
-17.021435 -62.178314 45.726093
-17.457417 -62.58263 46.30672
-17.335983 -62.54598 52.32819
-16.869839 -62.547062 52.75092
-16.990946 -61.75958 45.828037
-17.559647 -61.712006 46.406082
-17.402353 -61.858734 52.358284
-17.332308 -59.623383 46.302223
-17.149284 -59.933514 51.70383
-17.342358 -58.517654 46.244728
-17.951973 -58.749542 52.15367
-16.845585 -57.45694 46.29904
-17.515106 -57.621094 46.57163
-17.61799 -57.558697 52.406425
-18.000887 -57.316906 52.69851
-17.294096 -56.912075 46.957436
-17.671474 -56.628647 47.410316
-17.744108 -56.69644 52.249306
-17.954819 -56.99591 52.638733
-17.902422 -56.25096 48.086086
-17.552202 -56.041245 48.69123
-17.900402 -55.842133 49.96826
-17.528875 -55.823257 50.172718
-17.634867 -55.992218 51.233997
-15.56842 -77.82455 43.44188
-15.568386 -77.96349 44.46082
-15.582748 -77.07554 42.629868
-15.713753 -77.28982 43.35262
-15.643877 -77.366615 44.185577
[...]
POINT_DATA 11923
SCALARS features_00 float 1
LOOKUP_TABLE default
0.6775338 0.7065077 0.66679794 0.6977438 0.64810264 0.6956979 0.7302414 0.56447124 0.67908955 0.73250544 0.7581105 0.5804827 0.65109855 0.7285366 0.77138776 0.43622416 0.5905241 0.67790514 0.7193308 0.66061836 0.7156136 0.5663221 0.55262214 0.53152084 0.6163298 0.6582691 0.68838197 0.70221233 0.5466193 0.5729752 0.53146887 0.49462298 0.7072234 0.72704947 0.5038342 0.5332434 0.4716526 0.25124452 0.29879302 0.7470758 0.445396 0.34897268 0.2213774 0.32711428 0.73671657 0.37385148 0.19140121 0.7560425 0.34776226 0.6536134 0.64901036 0.22662789 0.32170978 0.5217582 0.6023283 0.5648225 0.60382575 0.5970633 0.6792048 0.5397882 0.5474551 0.64956665 0.6652664 0.5377139 0.55771536 0.5881113 0.65195036 0.6810477 0.718274 0.5166966 0.7301376 0.38775256 0.445094 0.69226325 0.62534845 0.32261673 0.356188 0.6079067 0.32635027 0.36505347 0.37813747 0.5700778 0.35825852 0.3590314 0.19914433 0.56328356 0.3068288 0.30945054 0.24921744 0.20406644 0.2871083 0.46825394 0.5925702 0.28855324 0.28128836 0.4034719 0.39561826 0.40584907 0.43698397 0.40000826 0.41810718 0.4296823 0.43365273 0.48999405 0.47279736 0.46806896 0.52995986 0.6016219 0.7079637 0.51919156 0.5291742 0.5061688 0.6451621 0.71788687 0.86454684 0.57597816 0.7923001 0.86462075 0.90030134 0.49301946 0.49635494 0.49727267 0.522409 0.36936736 0.58358383 0.43315232 0.4814973 0.2903885 0.64988065 0.6822636 0.4148854 0.62468606 0.2524023 0.2706993 0.5424957 0.23126301 0.2791788 0.4922351 0.27317756 0.45078105 0.25798684 0.29703248 0.47700292 0.26831067 0.2832892 0.28025037 0.44922227 0.2223161 0.2419708 0.27869484 0.27242666 0.31743678 0.31769782 0.34315076 0.28644273 0.30817497 0.30715448 0.40493846 0.4016809 0.41298956 0.39330876 0.4085436 0.40437788 0.29649988 0.352287 0.4080856 0.4077363 0.38983607 0.3881263 0.45070082 0.4790033 0.80438244 0.82618505 0.50390685 0.52308464 0.8880191 0.86023843 0.5284952 0.55175245 0.89088154 0.8875333 0.8713257 0.5379964 0.57460284 0.7271186 0.8343322 0.8751868 0.45770463 0.44016314 0.48485243 0.48085433 0.48786426 0.58881265 0.44852513 0.47476587 0.5658476 0.6062153 0.2976256 0.594017 0.2112675 0.46968418 0.23132482 0.45451632 0.23620313 0.22529916 0.35555473 0.2573648 0.24150082 0.3551967 0.24019173 0.22316 0.22135104 0.199086 0.33774108 0.23826066 0.26864475 0.28807056 0.29374397 0.33078238 0.4039514 0.26527196 0.2417134 0.37556446 0.42664725 0.44074702 0.47322446 0.12708768 0.1522547 0.32218406 0.4074722 0.45953614 0.14569193 0.18057528 0.39561695 0.4317453 0.25879133 0.24536577 0.37457302 0.30702072 0.36200464 0.41804552 0.42228106 0.6427717 0.71379733 0.48301935 0.8083744 0.49717438 0.5117466 0.82734907 0.82743 0.50407684 0.5133777 0.52744997 0.6575676 0.7711399 0.8344191 0.46186745 0.38561398 0.4603243 0.20514216 0.023887176 -0.13337043 0.24560194 0.3785519 0.51775765 0.41309023 0.47370964 0.44461268 0.41048384 0.31053317 0.23468429 0.28563845 0.32610887 0.27315164 0.33029854 0.28986856 0.23138133 0.23189887 0.14740485 0.19360304 0.1717229 0.2756221 0.30280668 0.28896952 0.21698198 0.3619491 0.47515732 0.52346635 0.31379426 0.21385375 0.48345596 0.51878494 0.10047157 0.07495295 0.08355424 0.50946 0.5659058 0.11026125 0.124259375 0.5001738 0.2938881 0.3087919 0.41774362 0.49492022 0.5056368 0.46398187 0.6503042 0.72723883 0.49160388 0.4888243 0.74376166 0.7473793 0.4936358 0.4972338 0.56133914 0.58245456 0.70499504 0.60583234 0.63995266 0.54301447 0.54812676 0.5561451 0.39095777 0.43628156 0.14996424 0.006949194 0.28837746 0.4224776 -0.07690434 -0.11056378 0.55165285 0.46046793 -0.20988815 -0.12046669 -0.09906545 0.55477405 0.48324358 0.20526306 0.36933562 0.53349286 0.27348045 0.46966374 0.39422318 0.35653818 0.15861459 0.3476448 0.1553071 0.2998417 0.26348704 0.06932536 0.13455805 0.07718617 0.08017586 -0.15449423 0.35203403 0.50489545 0.55027324 0.3351431 0.29188082 0.5535159 0.56722933 0.27358937 0.59671426 0.15331772 0.5776681 0.14639136 0.5081799 0.36841106 0.33389884 0.4846559 0.5240067 0.5211812 0.57785857 0.5397148 0.5493832 0.6570771 0.6657295 0.56978756 0.5936903 0.57061577 0.617473 0.65813136 0.70833385 0.7548973 0.78373873 0.7651265 0.6359409 0.68487537 0.6933899 0.7169136 0.7242932 0.5622611 0.58260196 0.59125906 0.63626635 0.56814766 0.48928675 0.49494416 0.46238726 0.28477982 0.036475234 -0.09885673 0.56748736 0.5327058 0.42937857 -0.08338905 0.60757697 0.58290684 0.042964853 0.09344873 0.6108405 -0.017641693 0.14828277 0.5512822 0.50164026 0.4302814 0.351642 0.32951438 0.21869746 0.086328655 0.14579502 -0.19225696 0.2030961 0.042519137 0.29262406 0.2973368 0.32859468 0.5801618 0.31079456 0.6228528 0.2246781 0.6314853 0.5578254 0.1346147 0.14328867 0.44806162 0.4889981 0.33581775 0.51959074 0.35405147 0.566103 0.53440964 0.59202254 0.59345484 0.64251435 0.621762 0.6092422 0.63799155 0.6560228 0.6425477 0.8074428 0.7969723 0.67553544 0.7381326 0.8046104 0.80941296 0.78837806 0.7601862 0.61010516 0.66416717 0.7180459 0.5456412 0.55619633 0.4998333 0.35880783 -0.15387973 -0.11163951 -0.13626817 -0.077828065 0.58276844 0.319004 -0.018508205 0.10480102 0.6227268 0.61416894 0.16962507 0.104454204 0.53838986 0.11773428 0.40877146 0.35230586 0.23926091 -0.022304296 -0.06372169 0.16164292 0.12095554 0.1938928 0.43223494 0.45688677 0.5864207 0.26646298 0.60536927 0.6113427 0.19489262 0.5709856 0.107230075 0.5025986 0.0811939 0.38656145 0.45207134 0.71735203 0.7137017 0.11651386 0.13433576 0.3193122 0.76713014 0.747542 0.55063343 0.82680494 0.8081062 0.58834225 0.60025334 0.47608227 0.48492128 0.66934514 0.62320316 0.54697204 0.6642251 0.77290237 0.77765226 0.7763092 0.70773757 0.74794316 0.7476351 0.77037406 0.6331078 0.49335045 0.5322635 0.4089187 0.11003495 -0.24221152 -0.15225765 -0.1523148 0.5009892 0.13800351 0.5693531 0.58444893 0.2069507 0.51493514 0.43670553 0.4392103 0.09863581 0.19244501 0.24040669 0.21569751 0.2018519 0.11770784 0.21413428 -0.27387062 -0.051505484 -0.39486265 -0.033204403 0.06817141 0.1609738 0.6269826 0.6274562 0.511765 0.12197268 0.4148836 0.55697495 0.6621307 0.64211035 0.7069248 0.6956111 0.64367115 0.52609015 0.2984629 0.59686553 0.72369707 0.6222086 0.47350627 0.27464274 0.10889591 0.5345135 0.5823431 0.5619965 0.5076851 0.33446026 0.23244429 0.059063002 0.48908043 0.6189084 0.2501387 0.20980379 0.39570883 0.68281734 0.6902807 0.68090886 0.6728649 0.033869117 0.49718884 0.0034059174 0.76117146 0.7715219 0.71385574 0.70052516 0.8318853 0.87798417 0.7953347 0.7332083 0.5568257 0.91373026 0.9208576 0.87043 0.7653033 0.94274956 0.94129145 0.7380825 0.74886304 0.7419634 0.68101394 0.7016823 0.71978223 0.6997249 0.60671294 0.61186147 0.46179843 0.46344453 0.40273082 0.3266765 0.241363 0.14827389 0.2745077 0.35389575 0.073025204 0.056642015 -0.26146734 0.40329298 -0.11330019 0.20763758 0.11547369 -0.02120629 0.016479537 0.12737319 0.19095455 0.19308521 0.21084154 0.21172848 -0.0027773231 0.24496256 0.23794132 0.34213358 0.33005643 0.26697263 0.0019285679 -0.08750394 0.024114786 0.17888397 0.2348083 0.5992233 0.5730123 0.5227344 0.33445454 0.31005862 0.3007652 0.21239066 -0.07219872 -0.027426496 0.64914167 0.5980835 0.5518224 0.48041275 0.39000484 -0.050216295 0.022615392 0.053276718 0.04896719 0.007020399 -0.009986356 -0.404504 0.7210834 0.6852785 0.6453512 0.58120614 0.5256478 0.60299236 0.5103612 0.37678283 0.105047934 0.0413148 0.2635898 0.80671465 0.7896218 0.7108388 0.64606875 0.57040393 0.6471044 0.64477533 0.3734464 0.087693155 0.08155231 0.10409352 0.11700381 0.17433278 0.8487047 0.7980417 0.7073777 0.6510588 0.6615757 0.7182955 0.22868894 0.11111545 0.11646644 0.20049599 0.30387628 0.28859752 0.5245755 0.50733095 0.3485126 0.28694987 0.1900635 0.12319531 0.25563428 0.32676935 0.13145038 0.3815394 0.4306138 0.5690971 0.5245358 0.4811092 0.30058694 0.23491322 0.24958476 0.1974258 0.1508402 0.20220694 0.26890853 0.12931325 -0.13708362 0.67533594 0.6390581 0.59070265 0.18490595 0.23291036 0.2649946 0.24614263 0.21915278 -0.36561233 0.73293614 0.5948446 0.45201558 0.23991005 0.25200275 0.25954968 0.80296886 0.8100204 0.60917586 0.5154901 0.88835156 0.9126997 0.6529924 0.93915415 0.9512174 0.8976172 0.7736194 0.69460607 0.6802481 0.672237 0.60423857 0.48662356 0.040511176 0.31313327 0.4641102 0.44802326 0.46041822 0.40821707 0.38847438 0.28353757 0.24498238 0.3107198 0.34208715 0.3401785 0.09998499 -0.01779408 0.19529931 0.24343888 0.27458864 0.29296404 0.31648704 0.1762631 -0.104249775 0.11770616 0.17140202 0.34226254 0.4167301 0.4641127 0.5844202 0.103038624 0.016112074 0.032634445 -0.004582219 0.05859007 0.34191054 0.422176 0.50923145 0.5277989 0.578583 0.6130947 0.5555092 -0.27838868 -0.22522011 0.06914538 0.08526553 0.16580078 0.46521974 0.57095003 0.60303354 0.5582705 0.587947 0.6007401 -0.50844216 0.045058236 0.32849306 0.49146867 0.5717046 0.62356055 0.45224744 0.47192645 0.5212834 0.43902382 0.02978291 -0.15343922 0.46745485 0.5342597 0.60438275 0.5302746 0.28580993 0.364712 0.34663576 0.30536017 0.27687868 0.18274085 0.12975408 0.55019 0.55553067 0.53601885 0.4598053 0.11091971 0.35336185 0.350348 0.1824418 0.5699905 0.5735676 0.33065844 0.24972838 0.2730114 0.0630874 -0.110834144 0.13041595 0.66029 0.27609214 0.22173037 0.20839892 0.081942335 -0.0131498575 0.41966355 0.52777374 0.58515024 0.74103665 0.30904165 0.1116898 0.4231751 0.33206633 0.031886414 0.12116674 0.29386997 0.49429113 0.6404716 0.6538921 0.79013234 0.3987777 0.44114393 0.5784849 0.6520928 0.7944735 0.8307613 0.049437877 0.4359632 -0.24663766 0.7877909 0.8596362 0.33125997 0.23128173 0.13953152 -0.2663706 0.43318278 0.05237425 -0.015485154 -0.092246205 0.6065281 0.05244574 0.20972654 0.17892908 0.16606599 0.015543073 -0.12548578 -0.40270254 -0.1613924 0.25223073 0.24676871 0.09557828 0.5746668 0.30510336 -0.13605875 0.16788583 0.20681661 0.24842805 0.22617278 0.1664229 -0.12423216 0.32041585 0.17775062 0.22681078 0.23917781 0.22538266 0.20247746 0.15599012 0.841598 0.5336171 0.11068699 0.2007871 0.21079324 0.16357821 0.12641683 0.10277943 0.3062913 0.47118455 0.3859526 0.91019285 0.93516445 0.9069263 0.69520056 0.17671554 0.16473173 0.36059847 0.43935612 0.4938571 0.39163566 0.41564733 0.44566014 0.63749516 0.6042645 0.46676812 0.5552312 0.6443666 0.6769818 0.6932192 0.59590304 0.6437169 0.6781632 0.103846535 0.06096979 0.07605705 0.41574472 0.43489182 0.08373965 0.42695317 0.3993489 -0.045498453 0.35318255 -0.10388182 0.2228027 0.23252514 0.32355756 0.339897 0.14748278 0.3512054 0.35202125 0.40208554 0.3562104 0.22688563 0.09110768 0.018718317 0.33216447 0.30741677 0.44372922 0.5542432 0.4892565 0.35644236 0.35057735 0.1438562 0.42802078 0.46970946 0.5049151 0.56309557 0.55800205 0.53983605 0.49271667 0.25958255 0.25126347 0.1228378 0.5030224 0.54349655 0.5947992 0.49443752 0.50866514 0.47163773 0.45772147 -0.012403632 0.624604 0.6426388 0.445355 0.475444 0.44962877 0.006904684 0.21627362 0.6435858 0.65887094 0.38833505 0.40355572 0.3458045 0.14584795 0.18192443 -0.006991896 0.033530943 0.2916382 0.49013764 0.6202749 0.6402533 0.51683426 0.5309124 0.48521143 0.2568854 0.19341539 0.25522554 0.24833475 0.24961227 0.15312682 0.5302064 0.53663844 0.24192876 -0.07135529 -0.004505858 0.2608812 -0.03475545 0.54581636 -0.08113183 0.25316814 0.250756 0.12613638 0.34625375 0.5628098 -0.036755666 -0.075743705 0.023569237 0.1716814 0.61856365 0.7435086 0.6663729 -0.03961241 -0.06607784 -0.061521903 -0.046746157 0.7213031 0.7800621 0.73565567 -0.10403235 -0.07982781 -0.07448745 0.31895712 0.4236353 0.7488705 0.7875767 0.74157894 0.7195581 0.6693368 0.65743613 -0.15354723 -0.1514108 -0.18097395 0.2931401 -0.0062473044 0.44957495 0.60342467 0.74174666 0.7340722 0.70193803 -0.19662932 -0.46055114 0.22343123 -0.24411944 0.29814577 -0.2000564 0.41651428 0.07278096 0.06043093 -0.27161026 -0.021801025 0.4551644 -0.03466611 -0.1428425 -0.13255642 -0.12795436 -0.24274476 -0.38938195 -0.23667653 -0.28373942 0.06668255 -0.2226308 0.031248912 0.22951156 0.26928455 0.23780075 0.6557342 0.6243023 0.042993106 0.055406075 0.1779445 0.18932043 0.22786334 0.34951836 0.38518503 0.43747663 0.71414316 0.7094853 0.08400652 0.19305518 0.19547607 0.16908109 0.09787521 0.03116071 0.109736934 0.16504914 0.33517772 0.34062225 0.45772383 0.52815926 0.3987941 0.22284015 0.19562995 0.17955254 0.39427698 0.39606202 0.41101557 0.59893775 0.48596215 0.49035025 0.26932108 0.30543724 0.42907292 0.46636334 0.693985 0.6689073 0.5094525 0.49922413 0.50837266 0.48519126 0.51851135 0.5852876 0.6254107 0.670401 0.73132133 0.5132207 0.5119922 0.61232287 0.13041002 0.050337266 0.0033734306 0.22695073 0.21441478 0.17891149 0.37642926 0.31511036 0.2582343 -0.0557259 0.29758772 0.35437372 0.37236947 0.3410482 0.2977881 0.1431675 0.113547824 0.296064 0.5296651 0.33053845 0.36607736 0.38089994 0.22868851 0.380374 0.4495679 0.4675519 0.56115246 0.58308184 0.5616811 0.5006878 0.40282995 0.31964174 0.3626293 0.5012321 0.53517795 0.5107977 0.5677573 0.38169003 0.25802556 0.24845043 0.5994692 0.47271407 0.32795382 -0.14125866 0.13308562 0.6619075 0.253708 -0.27192232 -0.2131827 0.6535516 0.5933019 0.6254285 0.4964999 0.21174763 0.14910215 0.47459024 0.5668871 0.4822858 0.5001128 -0.12203161 0.2206374 0.48848087 -0.3349027 0.59408766 0.41219565 0.75353336 0.7722713 0.46198368 -0.049418498 0.8024821 0.8013673 0.6685183 -0.06268437 0.12051398 0.8148481 0.8101366 0.6707593 0.54380125 0.55241656 0.43802273 0.08611139 0.25259277 0.516496 0.63590896 0.7983037 -0.30651996 0.0007792637 0.18381998 0.19296022 -0.14389625 0.2445311 -0.08341505 -0.0949667 -0.14500959 -0.18677072 -0.0025303066 0.40214485 0.0969999 -0.0031795278 -0.091482915 -0.12908949 -0.15571049 -0.24746418 0.32215694 0.32790112 0.18238054 0.16227713 0.10555127 -0.011648334 -0.1484066 -0.034437783 0.41301244 0.41350177 0.4459043 -0.017780885 0.11134435 0.17931323 0.19276169 0.30689362 0.49925554 0.48517418 0.28189492 0.20326869 0.15438575 0.18188973 0.18946669 0.3688244 0.39439616 0.5823828 0.58307296 0.44428548 0.37693295 0.31015688 0.34526002 0.31069678 0.3209299 0.36138994 0.40399638 0.41700274 0.67241096 0.64270806 0.50443435 0.51706004 0.378215 0.4011544 0.4419885 0.4117008 0.4166791 0.47914612 0.53274155 0.6875637 0.72118944 0.7191284 0.5024586 0.50948995 0.5141502 0.5036261 0.45283058 0.34507138 0.46930438 0.55547464 0.5845517 0.6150268 0.5051327 0.5113008 0.51243675 0.5083736 0.72452366 0.7268088 0.59210294 0.66593575 0.6750828 0.62655854 0.5001316 0.5607147 0.5873878 0.57280153 0.5564958 0.3908381 0.42296523 0.4869117 0.51344156 0.5181899 0.5352088 0.34790018 0.33693808 0.41095808 0.41877106 0.47418877 0.28288463 0.33125618 0.31642827 0.40162483 0.055742905 0.10178949 0.21094203 0.22092748 0.21103553 0.2209914 0.15861613 -0.007911336 -0.06501463 0.1856913 0.12263784 0.20450652 0.18175054 0.31839442 0.32386455 0.31334168 0.2691999 0.2358996 0.110533364 0.05262382 0.099772096 0.54730225 0.5368021 0.49107683 0.2994903 0.3199584 0.3175508 0.39776528 0.4468493 0.51808983 0.55928814 0.5491363 0.46290427 0.2119697 0.08875469 0.49060446 0.47219777 -0.04632713 -0.095815785 0.48091903 0.37303174 0.57437813 0.28224343 0.5998858 0.55188805 0.50077105 0.46872187 0.22711843 0.30376256 0.40327236 0.44536537 0.36765796 0.45594493 0.29573172 0.7006557 0.7166976 0.32474682 0.7683703 0.7372448 0.78585124 0.26491296 -0.46092862 0.6268199 0.7251618 -0.29952085 -0.08561844 0.17559427 0.43761593 -0.18857038 0.17894527 0.21128812 -0.0811234 0.1129059 0.32023054 -0.02982425 0.38130316 0.100616336 0.17981681 0.13964894 0.095540196 0.23593614 0.5009175 0.22699857 0.27528623 0.045356005 0.14773521 0.1606893 0.11934887 0.6287435 0.6114712 0.309937 0.06698609 0.11969395 0.31302184 0.67864287 0.658807 0.44796592 0.3601451 0.46965998 0.4499415 0.40845668 0.3651546 0.42706135 0.49569464 0.5329754 0.6321124 0.6970754 0.6985731 0.49335846 0.4026002 0.23899108 0.3833834 0.4727962 0.46432596 0.5251673 0.55319655 0.6036714 0.4699766 0.500914 0.5140813 0.5088746 0.45555365 0.41481784 0.51327705 0.5162077 0.50771254 0.7830834 0.768105 0.7108753 0.7610347 0.7535899 0.7232835 0.5516966 0.6112709 0.693464 0.66171074 0.6008321 0.44521454 0.4532802 0.560119 0.34062624 0.51974845 0.31541002 0.45648888 0.14629975 0.11497946 0.33307752 0.13239707 0.033896387 0.19594549 0.18032514 0.21132016 -0.11335556 0.12080121 -0.19980186 0.04367489 -0.20944238 -0.0637047 0.218346 -0.046065465 -0.11181136 0.23988709 0.2715488 0.2470152 0.19638592 0.16518642 0.10503588 0.001646664 0.5098865 0.098987184 0.25776783 0.2098844 0.46377486 0.5130012 0.4868479 0.40186685 0.20778182 -0.09965165 0.41061205 0.35159537 0.39053047 0.23744218 0.28628448 0.37239292 0.24418846 0.42232135 0.43147033 0.09760875 0.37716854 0.25905278 0.4668033 0.46266246 0.5539142 0.4684352 0.6679356 0.7034812 0.61913323 0.59232986 0.6683331 0.7371644 0.6126453 0.40385288 0.3333875 0.4785487 0.5501946 0.65130025 -0.09596412 -0.06466104 0.08216881 0.10019064 0.07781942 -0.03951396 0.60286295 0.5205728 0.4840439 -0.18394315 0.40626645 0.66054666 0.6203666 0.54249716 0.49312106 0.042224713 0.6565839 0.6488906 0.59982085 0.46820202 0.10096985 0.17938635 0.06200983 -0.042157717 0.15451084 0.59477174 0.63289547 0.340585 0.2613349 0.19113155 0.23952039 0.20301443 0.22223 0.3103152 0.5889219 0.64462864 0.26802427 0.24838254 0.15481314 0.35212004 0.4211522 0.46692488 0.4728946 0.40368357 0.4087625 0.41696525 0.5081845 0.57647765 0.61520535 0.6758231 0.38910505 0.24953288 0.40303165 0.3701406 0.4515831 0.42694277 0.48581952 0.51116323 0.43636358 0.41745037 0.39047253 0.3138219 0.49050903 0.5079284 0.49215624 0.78339267 0.75736797 0.5915539 0.6900945 0.7208566 0.4823826 0.64537776 0.59432805 0.5582466 0.3332833 0.51247764 0.1695018 0.30152637 0.0032479763 0.06787402 -0.030277744 -0.009176023 -0.008614801 0.026389278 -0.03546349 -0.15691154 -0.0038615987 -0.04734942 -0.060229976 -0.13485065 -0.1078403 0.16436 0.1522071 0.12236681 -0.21018869 -0.045682207 -0.03492342 0.052338574 0.38969773 0.44408935 0.46209013 0.29012397 0.2745853 0.36828345 0.2085373 0.25349742 0.26109323 0.23807544 0.13578203 0.273228 0.17162716 0.25970617 0.3050778 0.33214784 0.081004 -0.096421994 0.2645949 0.19047746 -0.11109443 0.5394185 0.6216114 0.36345404 0.67279786 0.3828272 0.6690745 0.63457537 0.5205938 0.37724257 0.40695673 0.40258145 -0.029843004 0.16504338 -0.088199034 0.40190405 0.40499973 0.5851117 0.48434603 0.43423116 -0.27667648 -0.36405122 0.66684353 0.5077673 0.45849538 0.34518313 -0.3792785 0.22569549 0.66521925 0.66777575 0.33635238 0.09755829 -0.34451854 0.24199009 0.66069555 -0.35226622 0.21861437 0.513953 0.6376422 0.6200189 -0.0070691407 0.13843933 0.19751956 0.3983944 0.50635266 0.51404905 0.50359565 0.052106798 0.2272259 0.21607672 0.4536401 0.3948107 0.40772894 0.41616383 0.39536008 0.41541383 0.48735917 0.45423952 0.30435494 0.21000396 0.24866298 0.27498734 0.30546373 0.32486057 0.3412052 0.5062094 0.53582096 0.51585686 0.29763162 0.34931648 0.4034059 0.3077543 0.5059973 0.5236346 0.27051845 0.3846066 0.48237777 0.4038757 0.6922974 0.71750355 0.68235016 0.68718123 0.4043252 0.3332084 0.44128978 0.020442396 0.17543581 -0.17843649 0.15005754 0.4783656 0.55295384 0.0030378401 0.035858512 0.24194765 0.43591398 0.5557734 0.5946327 -0.2571001 -0.13636334 0.22667675 0.47443318 0.24590647 -0.018049434 -0.08226974 -0.078231476 0.18535179 0.28485712 0.2542831 0.16362832 -0.050012123 -0.031147666 0.09802404 0.07362659 -0.08297448 -0.1536822 -0.14038299 0.2855105 0.07956365 0.04737401 0.0037438534 0.37339675 0.35563648 0.04073967 0.30247906 0.28517595 0.29491925 0.19854496 0.24517432 0.286783 0.27641714 0.15279713 0.2386804 0.18198894 0.01655249 0.2341117 0.14664724 -0.007220242 0.4553318 0.36911616 0.5554689 0.6370003 0.6750375 0.67323244 0.60585374 0.47299165 0.34968793 -0.2873867 -0.034494985 0.24007437 -0.082324475 -0.1798702 0.071119875 0.09732713 0.084557 0.24396951 -0.06667072 0.55758953 0.42454764 0.40696216 0.29302257 -0.265418 0.53587216 0.5649398 0.6126133 0.6234829 0.10219784 0.2978142 0.3890586 0.620626 0.6433748 0.09866593 -0.030612018 0.10711792 0.6455711 0.65337145