# vtk DataFile Version 2.0
Really cool data
ASCII
DATASET POLYDATA
POINTS 8338 float
-1.6560829 5.9588327 62.804905
-1.6476082 6.0789595 63.40163
-1.6614615 6.697249 62.069347
-1.7989572 6.646201 62.61144
-1.8722644 6.7512946 63.478573
-1.6361709 6.7825665 64.17633
-1.6240915 7.2148247 62.086884
-1.7482553 7.339384 62.672626
-1.7486522 7.425994 63.39864
-1.7171737 7.2107196 63.902702
-1.6257657 7.736582 62.69798
-0.6595061 -53.70473 52.51205
-0.7843518 -53.224987 51.764927
-0.87079185 -53.28222 52.4829
-0.7475189 -53.260754 52.94327
-0.880786 -52.572346 51.77908
-1.0094821 -52.541832 52.38634
-0.86655104 -52.617767 53.00437
-0.7883505 -51.934696 51.80426
-0.8275734 -51.93972 52.514458
-0.62997794 -52.001377 53.146442
-0.89307654 5.2150726 62.665226
-1.1164985 5.860348 61.858868
-1.3148069 5.604149 62.669888
-1.259108 5.49937 63.492596
-1.0669979 5.6276407 64.13692
-0.9422047 6.785193 61.300243
-1.420913 6.661944 61.712734
-1.4267044 6.5837755 64.41525
-1.1369064 6.5116906 64.98742
-0.67906165 6.249462 65.842094
-1.3099169 7.302227 61.741398
-1.50415 7.6586823 62.32649
-1.3290242 7.326147 64.51616
-1.238368 7.105299 64.78838
-1.0083473 7.8780956 61.90068
-1.0651145 8.201045 62.604855
-1.3068038 8.071533 63.462116
-0.75824857 7.9208474 64.97569
0.19731191 -53.839622 51.241314
-0.2300578 -53.873295 51.69555
-0.23399273 -54.079075 52.465454
-0.23077095 -53.882675 53.151833
-0.07729906 -53.217106 51.026382
-0.41423854 -53.47688 51.379242
-0.34019202 -53.55415 53.362816
-0.012404382 -53.320477 53.787636
-0.25049898 -52.64165 51.057507
-0.5093996 -52.585308 53.478603
-0.07136291 -52.703285 53.87834
0.11812359 -51.685722 51.177994
-0.49237898 -51.762165 51.674526
-0.36944076 -51.680138 53.35731
0.119105384 -51.43358 54.03982
0.057225287 -50.617325 52.68273
0.10598898 -50.69031 53.26235
0.26559237 -51.087227 54.0193
-0.1926729 4.8617544 63.668354
-0.44994092 5.1995535 64.171234
-0.045378894 5.149434 65.75824
0.03846723 5.098707 66.55624
-0.51721287 5.4469686 65.382164
0.19969475 5.5663867 67.40285
-0.6385685 6.5853734 61.176987
-0.48657906 6.324985 66.28301
-0.3991074 7.3600082 61.265724
-0.40011734 7.1293793 66.28028
-0.22714725 6.9611096 66.77784
-0.36472565 8.09729 61.708645
-0.42565313 8.458067 64.17446
-0.23291469 8.003977 65.79995
0.14495708 7.8488827 66.61768
-0.26513207 8.889786 62.788155
-0.32629228 8.900096 63.312634
0.78309906 -54.508823 52.53475
0.4594664 -53.858604 51.08338
0.6343255 -54.27721 51.695637
0.50733346 -54.423107 52.47278
0.54791456 -54.238537 53.360783
0.65210825 -53.876152 53.79205
0.5977525 -53.44563 50.812252
0.6174793 -53.584763 53.93937
0.59821373 -52.567066 50.71858
0.7048168 -52.476593 54.328735
0.6366327 -51.54579 50.980675
0.82409775 -51.32118 54.503803
1.1310749 -51.321198 54.559544
0.7434419 -50.928577 51.222984
0.6778158 -50.330788 51.737495
0.37183225 -50.62623 53.657475
0.6487708 -50.80414 54.176487
0.9788269 -49.97904 51.945034
0.6693063 -50.090393 52.49143
0.7232057 -50.2131 53.55989
0.9604002 -50.278484 53.926872
1.4713565 -47.46089 50.03535
1.4506998 -47.6674 50.1534
1.1188991 -36.755554 37.885895
1.1385094 -36.95168 38.514404
1.1812171 -36.93758 39.20788
1.0414464 -36.323864 37.836166
0.8186991 -36.38169 38.51878
0.91474783 -36.330887 39.388935
1.2000735 -35.986927 40.157448
0.9741615 -35.563057 37.82296
0.6839018 -35.668922 38.62983
0.78554547 -35.52379 39.3642
1.139094 -35.519176 40.008556
1.0880489 -34.849453 37.9201
0.97257894 -34.70208 38.438908
0.96461236 -34.873253 39.296307
1.192352 -34.99543 39.909325
1.27109 -34.311607 38.496803
1.1932855 3.0818806 59.429733
1.1179737 3.6499946 58.891453
0.7978205 3.7392807 59.527218
0.8324713 3.746033 60.150017
1.1441019 3.528109 60.982937
0.98447156 4.2133183 65.66442
1.1018937 4.4517226 58.900703
0.8006174 4.5334477 59.48286
0.5824176 4.6596847 64.84789
0.66827077 4.4901404 65.41117
0.6403278 4.753544 67.27228
0.8402968 5.1545086 67.92526
1.1490271 4.7899933 59.05987
0.7966757 5.0263653 60.411972
0.99914324 5.6708946 68.33059
1.3253819 5.9431887 68.7327
1.3464006 5.8517547 72.916466
0.32719785 6.3849807 61.121563
1.4054925 6.4420347 71.85884
1.2563176 6.6978383 72.55287
1.3378872 6.484621 73.45032
1.4160438 6.346625 74.07092
0.4589836 7.3337173 61.16765
1.1735033 7.3903556 68.39067
0.5145185 7.8381705 61.359966
0.46304685 8.460966 61.73922
0.4620976 8.176351 66.49961
0.6781887 8.99169 62.194103
0.5171163 9.193056 62.67655
0.6370486 9.322343 63.407597
0.8974507 8.75829 65.49514
1.2146996 -53.90484 51.016983
1.4491677 -54.128242 51.552998
1.1763991 -54.433933 52.554527
1.4496195 -54.28064 53.259094
1.1954722 -53.81933 53.920746
1.2202393 -53.5203 50.797276
1.7350211 -53.356464 54.110783
1.2971691 -52.732155 54.323303
1.5117494 -52.13669 54.62654
1.8491619 -51.483807 50.885937
1.511268 -51.319874 54.672417
1.3429613 -50.625614 54.37813
1.891385 -51.017014 54.73863
1.9198704 -50.137375 54.217926
1.7484603 -48.028843 49.64617
1.4989378 -47.897488 50.32616
1.8706114 -48.892246 51.414787
2.1737084 -48.101654 52.224945
2.057974 -47.332794 49.006344
1.6740196 -47.4882 49.65005
1.7187216 -47.331135 51.25885
1.9580474 -46.948128 49.22045
1.8088055 -46.911697 49.55676
1.6701349 -46.74896 50.40569
2.0664558 -46.539337 51.429657
2.1890755 -46.700848 51.782417
2.1430626 -46.169342 49.87218
2.086805 -46.013054 50.408966
2.157104 -46.1014 51.173
2.432678 -42.036423 45.965668
2.4229398 -41.092796 45.03845
2.3151636 -41.31796 45.65556
2.3532712 -41.29951 46.245834
2.3229032 -40.760174 45.7866
2.370379 -40.76937 46.244606
1.9156969 -37.633976 38.78992
2.0054183 -37.012905 37.368973
1.6580673 -37.02313 37.7028
1.614321 -37.312824 38.19015
1.5946214 -37.140533 39.492733
1.6757901 -36.42972 37.3142
1.4743494 -36.596077 37.45746
1.4670365 -36.34371 40.211246
2.0122445 -35.997463 40.671726
1.6420556 -35.6345 37.28479
1.3163811 -35.24459 37.522533
1.5257124 -35.62673 40.374928
1.7143377 -35.00827 37.36946
1.6269135 -34.615303 37.655952
1.4107573 -34.610176 39.653873
1.7530029 -34.946884 40.171757
1.6942773 -34.20261 38.049404
1.59313 -34.147232 38.43579
1.669557 -34.18279 39.139847
2.4172955 -1.793817 54.68136
2.3789165 -1.375016 55.61312
2.3344052 -1.3731797 56.874752
2.1582832 -0.873993 57.078686
2.284815 -1.1149843 62.998913
2.2609248 -1.2375901 63.259243
2.1596134 -1.1666169 64.24201
2.3468966 -0.9827025 65.01369
2.170863 -0.4117663 55.65789
2.0758514 -0.48445845 56.650246
2.2039013 -0.4363876 57.358192
2.1972065 -0.5501327 62.938236
1.9693952 -0.38818768 63.59121
2.011564 -0.5322219 64.41063
2.155619 -0.7848194 64.92841
2.1622734 0.18953432 55.657276
2.0676553 0.19461785 56.322807
2.1900747 0.36292857 57.2616
2.233595 0.16989872 62.945164
2.085871 0.3768586 63.731647
1.9902157 0.18217936 64.30256
2.3939219 1.067714 55.808887
2.269341 0.846804 56.252373
2.0468655 2.114853 60.122726
2.3874404 1.2968272 61.977905
2.372125 1.5720524 62.47952
2.1475866 0.827479 64.130066
1.8765867 2.8861651 58.721043
1.4864954 2.966409 60.59022
1.822812 2.6909146 61.44602
1.6071279 3.5879464 58.546547
1.6291667 3.8193035 62.609867
2.01754 3.8719225 63.50661
1.8801731 4.228896 58.30323
1.4102502 4.4291153 58.648304
1.8431073 4.516064 68.35398
2.1211205 4.5946074 69.80506
2.2819083 4.6204233 71.61348
1.954428 4.8750143 72.19458
2.161924 4.800428 73.24618
2.0841086 5.1317663 73.860405
1.5814122 4.9909625 58.77468
1.4850363 5.0806236 59.236492
1.89399 5.97854 70.24063
1.5158765 5.6191483 72.52617
1.6853079 5.513228 73.36151
1.9503827 5.691305 74.518585
2.0867746 6.091172 75.23815
1.244827 6.798514 61.067127
1.518527 6.448305 71.90951
1.6485317 6.5625033 74.66723
1.847604 6.527371 75.17767
2.0388265 6.794435 75.66681
1.4593505 7.3915286 68.98541
1.936825 7.441797 69.85073
2.16776 7.321185 71.372795
1.6867512 7.619893 73.102135
1.7000443 7.4537773 74.667015
1.9443603 7.476335 75.29164
1.1750138 8.0876465 61.381054
1.8576331 7.842029 69.55293
1.9287782 8.153163 72.783806
2.10299 8.66422 73.557526
1.9173337 8.071288 74.3751
2.283224 8.659797 74.99151
1.3060025 9.185493 62.678017
1.6228199 9.239525 63.492718
1.5589947 9.003699 64.37414
1.7913562 8.65349 66.231346
2.3716314 9.237538 74.19315
2.0154202 -54.185112 52.569374
2.3846688 -53.96031 53.430264
2.6561854 -53.67704 53.95256
2.171162 -53.33622 50.976707
2.8228855 -53.54452 51.32846
2.6146073 -53.405285 54.181126
2.2974422 -52.354565 54.650246
2.5886812 -51.301033 54.83596
2.169422 -50.82906 51.04831
2.44738 -48.889343 49.949505
2.5081813 -49.57465 51.075863
2.8089023 -50.19491 54.642426
2.6705787 -47.862144 48.439175
2.5229187 -48.935707 53.066593
3.0477734 -47.195415 47.78467
2.4384532 -47.434357 48.59032
2.348016 -47.529648 52.250034
2.9099047 -47.684517 52.722775
2.8471925 -46.950672 47.95532
2.7136958 -46.630074 48.37494
2.6278083 -46.602768 52.057102
3.103319 -47.0609 52.615414
2.922681 -45.935207 49.086483
2.6146898 -45.925835 49.379173
2.7694216 -45.555813 50.604603
2.592828 -45.811676 51.283577
2.691133 -46.079914 51.714172
2.9713662 -45.43935 50.56882
3.031858 -45.399807 50.922646
3.2581463 -42.763584 44.04855
3.1978264 -42.795185 44.3882
3.0482814 -42.809097 45.745457
3.0283225 -42.81161 46.29656
3.1412077 -42.31558 43.741096
2.8700078 -42.364388 44.70466
2.5993118 -42.178032 45.541622
2.6708758 -42.181858 46.389435
2.9837806 -42.088272 47.050144
3.408252 -42.17655 61.701233
3.3796427 -42.161972 62.39837
3.4540393 -42.010677 62.880188
2.8798313 -41.591064 43.894478
2.673972 -41.344578 44.36372
2.4848218 -41.42309 46.61667
2.6904974 -41.30294 46.965115
3.285359 -41.288296 61.679085
3.2902174 -41.5443 62.401543
3.3554096 -41.135296 63.31258
3.0157673 -40.50206 43.949375
2.4781084 -40.31308 45.622406
2.4905014 -40.46078 46.259686
2.8634005 -40.62525 47.08419
3.2993693 -40.588856 61.693623
3.2198215 -40.574146 62.524418
3.3270607 -40.414333 63.031788
3.1732118 -38.582844 39.139725
3.0579622 -40.011974 44.555405
2.7514277 -40.0122 45.612732
2.9382145 -39.909954 46.396442
3.0860765 -40.057247 47.017662
3.3242395 -40.126694 61.79851
3.3862576 -39.867237 62.317097
3.0888946 -38.92848 66.84398
3.058714 -39.229874 67.58685
[...]
POINT_DATA 8338
SCALARS features_00 float 1
LOOKUP_TABLE default
0.7139443 0.6727514 0.7318638 0.7268883 0.6888614 0.6093313 0.7218413 0.71603304 0.688943 0.6487384 0.7057425 0.94825983 0.95087445 0.9383337 0.9056078 0.9395311 0.91701937 0.87076104 0.8945124 0.8547313 0.79026675 0.60143244 0.722708 0.68965566 0.5975292 0.5257756 0.69073796 0.7278154 0.56375974 0.4938195 0.44522643 0.70859516 0.710173 0.5501046 0.5146793 0.69504434 0.69749224 0.67142534 0.47869074 0.86560637 0.9243343 0.9485555 0.90317047 0.87263775 0.9184216 0.87715554 0.8108199 0.88239825 0.8091628 0.7593511 0.78744316 0.85638404 0.72061145 0.62465835 0.6551535 0.61419344 0.5946342 0.30370593 0.3925062 0.34749934 0.3786962 0.40079853 0.3591057 0.65305275 0.43343765 0.6473727 0.42925015 0.41049507 0.67922854 0.6170174 0.45473868 0.407242 0.6984748 0.68712294 0.8651962 0.8372408 0.8524582 0.90159136 0.83259034 0.7722005 0.8070605 0.752213 0.7952977 0.6531595 0.71406186 0.5502627 0.52879333 0.6706276 0.60931885 0.57576096 0.547244 0.47506124 0.5731782 0.53099954 0.49942082 0.60014284 0.59328043 0.7409574 0.7580142 0.84573853 0.80312324 0.8877547 0.9335501 0.75973797 0.8756702 0.99834335 0.93085754 0.7682962 0.8668171 0.91568273 0.8948595 0.7556344 0.857929 0.67557 0.70334196 0.69431394 0.6479921 0.38593444 0.094976 0.66254973 0.65429884 0.15022118 0.16634226 0.30470812 0.27753434 0.6338768 0.51818156 0.2583478 0.23131129 0.46810684 0.4827773 0.40335482 0.47617102 0.53227186 0.5465708 0.5706892 0.30334222 0.60294104 0.65988064 0.4294316 0.684363 0.69227743 0.64186025 0.4887479 0.75414205 0.738942 0.7968408 0.6907846 0.68408287 0.73856676 0.60603935 0.6169716 0.5457264 0.54993606 0.5005863 0.48226476 0.46291202 0.3899264 0.5268051 0.5850918 0.45204943 0.44455823 0.56803924 0.584885 0.61469173 0.59658355 0.60692346 0.6549865 0.5768166 0.5190041 0.6477336 0.64762473 0.58758503 0.5714798 0.61251533 0.59051913 0.583547 0.5894606 0.5796858 0.5871264 0.63063264 0.66061616 0.63031626 0.7774119 0.7243767 0.72536993 0.7251366 0.5634539 0.7728701 0.8250644 0.6615466 0.7680093 0.7816482 0.76829416 0.65551794 0.7785553 0.8027117 0.7854251 0.5691872 0.48519823 0.33303797 0.36150008 0.24522585 0.28175384 0.39873672 0.4598401 0.5502073 0.45108745 0.35462844 0.23670702 0.3430742 0.43065834 0.46182692 0.5905998 0.5447511 0.47440672 0.22070765 0.34598392 0.41093302 0.6297424 0.60701907 0.2828983 -0.026523553 0.006091837 0.33393973 0.70425475 0.3728754 0.093151085 0.7136561 -0.011884106 -0.17690672 0.671463 0.66433704 0.10665027 0.06684103 0.25194496 0.35662022 0.40827113 0.47165903 0.61461675 0.5898267 0.1467536 0.43319905 0.4686098 0.5287781 0.58079785 0.43521306 0.40703726 0.5867229 0.6060215 0.6401576 0.25119114 0.15062395 0.23178652 0.5026718 0.6253886 0.6616314 0.6002852 0.1766201 0.39962828 0.43581572 0.5597933 0.5489596 0.64590776 0.5109955 0.3911652 0.29357257 0.4695046 0.6423502 0.5524717 0.52900136 0.6052286 0.53379893 0.52468616 0.52380955 0.43542624 0.36696115 0.4680666 0.27197683 0.34320113 0.5474843 0.20443195 0.55260783 0.55163825 0.43597516 0.33726704 0.5578381 0.564022 0.45380634 0.36530167 0.57859266 0.6145191 0.57461655 0.5289429 0.47891963 0.5464772 0.49992442 0.5046935 0.5075334 0.49763626 0.47554338 0.52873564 0.55233526 0.5681586 0.5562436 0.5243778 0.5370999 0.51917595 0.4892612 0.587006 0.6219289 0.5761865 0.5639011 0.519413 0.5082319 0.45484295 0.6098839 0.58213097 0.56950116 0.53719527 0.49476486 0.4826502 0.4626444 0.4561318 0.5826485 0.5617384 0.51850224 0.48451763 0.4662956 0.45064145 0.8257071 0.8268418 0.8221841 0.4785666 0.4692931 0.471645 0.50740814 0.7975503 0.8579228 0.8547456 0.60419166 0.524919 0.50011295 0.70498717 0.8035548 0.8206309 0.6651729 0.5127512 0.66484255 0.7299888 0.6644604 0.5795008 0.72096395 0.5705931 0.5204288 0.695001 0.7116169 0.53075874 0.50822574 0.6233973 0.72705525 0.75431263 0.46384478 0.5282852 0.6134838 0.74863625 0.766334 0.48169672 0.5389243 0.60482144 0.7129494 0.7757745 0.48268247 0.5291528 0.5775043 0.6270846 0.50265014 0.54623413 0.5803585 0.46974576 0.24134772 0.4890824 0.4632427 0.35673437 0.28624278 0.06959847 0.016302394 0.10205221 0.1890986 0.25689492 0.27259612 0.6013539 0.5152907 0.43206498 0.07634136 0.03601896 0.14174365 0.17146665 0.25670364 0.38226533 0.6473615 0.628571 0.23473045 0.08236228 0.031760998 0.071893096 0.22576651 0.42618442 0.6395485 0.624227 0.6112206 -0.017447878 0.6149944 0.63059515 -0.051936347 -0.01407262 0.34996983 0.6420876 0.6415688 0.6261153 -0.074489444 0.2718377 0.11662331 0.11303498 0.21570915 0.33400556 0.36653394 0.6420088 0.6748547 -0.26470956 -0.21983641 0.21295965 0.3023446 0.35933986 0.38718095 0.6791892 -0.2962245 -0.24019879 0.30576283 0.6281655 0.37932578 0.49608636 0.53501976 0.59962595 0.5323317 0.532143 0.5607219 0.5965173 0.48194456 0.6306445 0.4712716 0.68771577 0.5795703 0.18779412 0.2056347 0.12289175 0.5890714 0.45045722 0.20631099 0.16645455 0.16816537 0.40463734 0.4727004 0.5167757 0.24709308 0.4015428 0.45878237 0.8873113 0.88022304 0.89070696 0.88844794 0.8845133 0.87171984 0.8561082 0.84948087 0.52652144 0.46597034 0.47281516 0.47236678 0.42074233 0.47153032 0.4822536 0.47457203 0.40766 0.35973644 0.40109482 0.43743548 0.25641516 0.29089022 0.47910333 0.23923826 0.46767837 0.44413793 0.27209815 0.5144267 0.29398155 0.4337241 0.34506437 0.3912377 0.20030314 0.44447687 0.5230413 0.47231564 0.47057486 0.4919928 0.43107182 0.295434 0.18355164 0.5176413 0.556439 0.5324265 0.46938753 0.49931562 0.5158889 0.49930605 0.5301106 0.532619 0.43244374 0.35877544 0.5236296 0.36186683 0.48337698 0.5207504 0.44362056 0.3796215 0.5550939 0.37540078 0.4453448 0.47594076 0.43826193 0.63343245 0.6739601 0.67484653 0.40982786 0.38679582 0.5569467 0.51129353 0.47254857 0.3526388 0.42232838 0.4294254 0.4143431 0.5112644 0.72650516 0.7540691 0.7654538 0.75104344 0.38872817 0.40374246 0.43347338 0.3655396 0.3027306 0.25871024 0.32884908 0.3537432 0.36234543 0.8203738 0.78197205 0.4195424 0.29254252 0.29194158 0.2546356 0.15310341 0.39548984 0.565255 0.79808354 0.7562493 0.47846186 0.21703005 0.13158801 0.25282392 0.5328483 0.70081484 0.74535424 0.51818573 0.44296348 0.4683169 0.5889335 0.3791963 0.5613921 0.430373 0.086248696 0.13295162 0.59339726 0.16194162 0.5586742 0.5753149 0.64137673 0.6505951 0.5862775 0.5938497 0.6379281 0.66393757 0.67434597 0.53932065 0.66196656 0.677727 0.665143 0.667031 0.6778968 0.63863486 0.65228176 0.61026156 0.5896105 0.6955053 0.68314666 0.7307998 0.74419665 0.7441602 0.6691636 0.73775685 0.76564646 0.7176265 0.63480735 0.68270737 0.63771105 0.7263967 0.73086745 0.3994643 0.49437326 0.6265139 0.73708737 0.73116887 0.40663785 0.4080429 0.4875344 0.733417 0.41672635 0.44226715 0.7488178 0.740273 0.4232026 0.45534262 0.39116946 0.44589263 0.42929965 0.46438316 0.3860361 0.48878002 0.4644866 0.4650489 0.5016074 0.4142434 0.45266685 0.4568119 0.48603296 0.5357298 0.53147215 0.48109612 0.32825434 0.41552767 0.45598304 0.4485197 0.42328387 0.50814307 0.48430645 0.4467271 0.3679843 0.43932837 0.46445608 0.4283113 0.18088758 0.1538499 0.23053885 0.21389988 0.2798122 0.0731007 0.15206687 0.07766706 0.1769851 0.24226186 0.25505257 0.23351528 0.38402343 0.34941623 0.067555845 -0.01412629 0.19249865 0.5370338 0.32096028 0.6530334 0.2680283 0.6320157 0.6247593 0.6056726 -0.099501595 0.36099723 0.40844256 0.63783926 0.21117476 0.41614625 0.41505298 0.5985975 0.54405254 -0.1636911 0.40904918 0.36609578 0.48674017 0.5445811 0.60723567 0.55786216 0.58192414 -0.035638288 0.59211767 0.39808607 0.0745765 0.56733143 0.19000871 0.023245081 0.065065905 0.51924074 0.5200782 0.2753998 0.43362218 0.46073484 0.4133396 0.37702912 0.8853313 0.8459254 0.8441597 0.8492681 0.8976063 0.78356767 0.8329022 0.85425764 0.8142707 0.7966867 0.7344847 0.77416337 0.7110621 0.72076285 0.6759434 0.648625 0.4338266 0.3482869 0.37328428 0.4205542 0.4485989 0.3135448 0.4401004 0.20976186 0.38603607 0.3301978 0.26914138 0.22030103 0.24680276 0.26303643 0.22143775 0.3538371 0.30299354 0.22344615 0.24108168 0.06431407 0.2620013 0.20799431 0.23667715 0.27568668 0.19073015 0.13977498 0.12099218 -0.009113133 0.45380524 0.4046208 0.45942968 0.4555096 0.40833676 0.43084964 0.30292916 0.30601954 0.086599424 -0.014824763 0.40508458 0.40336987 0.31486773 0.43606612 0.1287875 0.24165565 0.39971504 0.36459315 0.39841318 0.30045956 0.39357814 0.18343689 0.23535335 0.44627106 0.4388317 0.4443246 0.23719925 0.18392311 0.2665853 0.21977763 0.52946854 0.5623579 0.5510217 0.3308629 0.37871513 0.34075558 0.17007035 0.44063586 0.2008098 0.255849 0.35918128 0.6448882 0.3307916 0.3326065 0.30515465 0.21988076 0.15875256 0.1579771 0.21380913 0.7014748 0.17550442 0.0061991736 0.115675256 0.11911243 0.2294842 0.262169 0.65862584 0.7134569 0.21233033 0.22669262 0.16131881 0.098974064 0.13985081 0.6182723 0.7025498 0.032055344 0.08090595 0.09082211 0.12210691 0.46895766 0.19815253 0.11023706 0.5183631 0.5811582 0.58983266 0.08870246 -0.06559631 0.030153127 0.13822791 0.18552157 0.52747095 0.48823446 0.6472174 0.63985777 0.09003835 0.07771441 -0.011572525 0.1329591 0.1643618 0.27086112 0.33133274 0.3510551 0.5835587 0.58438563 0.6785848 0.6706801 0.4035093 0.47704518 0.46719128 0.43236673 0.47491616 0.66189456 0.65514666 0.6654701 0.67313653 0.6692774 0.3278396 0.52504677 0.60435724 0.5637486 0.5269939 0.539539 0.5098891 0.6718278 0.6902467 0.70464796 0.6896634 0.6706866 0.6458546 0.6659978 0.56029046 0.49625075 0.44598848 0.7003628 0.69191325 0.35392883 0.72340536 0.75598145 0.5159988 0.45549303 0.74600446 0.6486479 0.47394216 0.6515292 0.59966695 0.67566854 0.6815729 0.58722425 0.6502073 0.66039205 0.6656208 0.5740799 0.5892049 0.63696504 0.6317626 0.72422063 0.74027777 0.42389315 0.507555 0.6540099 0.7254139 0.7463988 0.74617 0.3672037 0.3797406 0.7354944 0.72598565 0.36924708 0.37086448 0.70385414 0.37522978 0.3800449 0.648179 0.27305037 0.36646977 0.48971236 0.48818642 0.5395009 0.22724932 0.48326665 0.53412664 0.5736362 0.4990843 0.15291348 0.22625647 0.48828793 0.576956 0.3713619 0.46261165 0.51602334 0.5349933 0.17441994 0.24852839 0.44106084 0.3921904 0.429146 0.43904915 0.30790317 0.4176871 0.40018728 0.37858894 0.53713435 0.32248825 0.2022741 0.28255233 0.43610013 0.13826609 0.61810434 0.5770215 0.49721688 0.17434359 0.32471347 -0.008039653 0.11219585 0.6246749 0.5276802 0.11644633 0.11785726 0.12968741 0.11416711 -0.06639054 0.22787562 0.20746696 0.11337535 -0.008097678 0.12867597 -0.018024106 0.27742213 0.26372764 0.45618013 0.10722009 0.14714795 0.23009397 0.24870594 0.26880988 0.17116356 0.6728488 0.07008137 0.63751113 0.6510705 0.64793354 0.5787113 0.401468 0.38504723 0.48994666 0.34446764 0.2718113 0.3570882 0.34175342 0.41048715 0.38571027 0.015710663 -0.022960003 0.5612365 -0.031327847 0.479019 0.09133167 0.114911705 0.088615455 0.28962767 0.8062258 0.72845274 0.42128912 0.42221105 0.38530275 0.3359407 0.82218647 0.8259504 0.7031267 0.66874105 0.49899608 0.47935367 0.48256466 0.47851038 0.7462259 0.6214293 0.73729646 0.5433355 0.71535224 0.6825124 0.6172075 0.52707464 0.5964999 0.6007473 0.600166 0.5865289 0.28302005 0.30510896 0.33592296 0.41401187 0.2729841 -0.030544676 0.2767517 0.14727029 0.1006983 0.24423826 0.052698273 0.21429694 0.20464987 0.22976598 -0.009133466 0.17882794 0.22920495 0.5514998 0.5435596 0.06724035 0.1002566 0.17609975 0.4406852 0.5029702 0.5210532 0.36557978 0.30421615 0.36595565 0.16399945 0.08407919 -0.03790684 0.06267585 0.32168913 0.3446223 0.4325052 0.39781255 0.37049383 0.34459525 0.3078708 -0.019568473 -0.011460595 0.17310442 0.31429762 0.33135003 0.0658318 0.16957617 0.17644794 0.06696923 -0.00065403804 0.111506045 0.036273867 0.3553859 0.11037069 0.08726223 0.45887196 0.44772884 -0.20693243 0.13091505 0.12594293 0.50323534 0.06881359 0.5066276 0.025913537 0.09852522 0.09470748 0.080465734 0.0062340125 0.5581763 0.5334178 -0.05965749 -0.053671993 -0.14500818 -0.106885254 -0.0011349134 0.0920179 0.11026067 0.07786774 -0.12824039 0.36758643 0.48938802 -0.05031556 -0.05488006 -0.13932855 0.06981132 0.11440894 -0.18539917 0.07777626 0.051078744 0.1464963 -0.15711394 0.25101742 0.20785265 0.019091755 0.36622727 0.40312788 0.19469064 0.14381842 0.00541766 0.3427018 0.34712774 0.3337691 0.34332025 0.3630932 0.36067557 0.41626793 0.41871375 0.40428337 0.23595801 0.011190027 0.24260904 0.31951123 0.34234127 0.3367507 0.21531844 0.058768958 0.44933495 0.5826057 0.4089486 0.40715274 0.37455067 0.25149053 0.13961399 0.13120899 0.12782983 0.06264919 0.24924774 0.29513326 0.32739544 0.29456764 0.20959325 0.14713943 0.2124641 0.2665118 0.5001203 0.63476235 0.3247081 0.22580272 0.21488927 0.19174552 0.22222772 0.19529471 0.08776705 0.2820271 0.28021127 0.4644497 0.627861 0.6041886 0.629938 0.30350056 0.32981634 0.3514858 0.25836328 0.15704481 0.22735831 0.23997071 0.22732268 0.14510429 0.40287417 0.42555928 0.44748652 0.6437961 0.68275446 0.6172618 0.60082555 0.37026703 0.38499588 0.345771 0.25026453 0.24663495 0.25897896 0.273934 0.5221785 0.41624063 0.6750991 0.6843247 0.6524862 0.62317604 0.36974412 0.32061294 0.30111614 0.3017944 0.34799576 0.32658535 0.31278643 0.5066645 0.6071354 0.30691007 0.35555774 0.41195467 0.44950905 0.5151854 0.43593103 0.6009909 0.6587664 0.31272823 0.30832 0.4038847 0.49485224 0.654859 0.6721232 0.67670524 0.28383455 0.2652035 0.52708006 0.7367101 0.79385346 0.7817472 0.4821248 0.5021664 0.5133333 0.5121467 0.54133093 0.57684386 0.59397197 0.5559478 0.45134112 0.5056458 0.6034882 0.6525588 0.63113093 0.44006026 0.50509626 0.54511225 0.6418935 0.63699925 0.42365372 0.4702189 0.5033418 0.5438825 0.6168788 0.62274134 0.5283333 0.6208156 0.7136524 0.7475135 0.40898168 0.45625913 0.40707117 0.4850463 0.34528765 0.4120742 0.7517701 0.7479447 0.4204052 0.3468037 0.3535498 0.7318637 0.52798325 0.5657823 0.5351836 0.34426874 0.36298552 0.68545115 0.53690195 0.5610492 0.56281185 0.19992757 0.64558625 0.53240895 0.53304607 0.5222233 0.2173551 0.053293884 0.21346523 0.59137315 -0.001933597 0.1102828 0.66860723 0.7920513 0.7562828 0.78563 0.43486202 0.5048112 0.05999506 0.6874892 0.28558844 0.31240067 0.49744967 0.45943624 0.49114528 0.4757733 0.3805137 0.2984162 0.13171494 0.2787428 0.32227662 0.59835863 0.53212416 0.3588756 0.31370598 -0.099804506 -0.053622432 -0.059768308 0.17007536 0.65210795 0.6329688 -0.03912623 -0.037648566 0.032681376 0.66444004 0.6463408 0.59272385 0.45647818 -0.10323967 0.22113469 0.64999866 0.6507919 0.6511486 0.5838499 0.1715782 0.22478175 0.26092613 0.27980715 0.33368868 0.65180445 0.45010945 0.19891801 0.27433318 0.29128784 0.387388 0.5272609 0.08076516 0.2660616 0.37285632 0.54867125 0.49153906 -0.13662623 -0.0064031165 0.47507474 -0.007568516 0.4485728 0.34901205 0.458684 0.36936647 0.34776813 0.25803173 0.14930303 0.13244464 0.18430662 0.09133834 0.5201755 0.020809945 0.08767332 0.1378935 0.13036768 0.33967853 0.67517066 0.7366282 0.52006966 0.6662737 0.7461787 0.39833957 0.6621703 0.7100382 0.6781005 0.35735545 0.47376502 0.6738508 0.5348082 0.5373575 0.5915573 0.58674103 0.39604932 0.5565454 0.55138993 0.53390753 0.48179424 0.6383889 0.60638785 0.42422873 0.6178136 0.4799579 0.54963386 0.55230093 0.55900425 0.5324304 0.5566203 0.24246082 0.26020628 0.30502778 0.36696708 0.47531164 0.31997108 0.25340134 0.013332345 0.22855166 -0.013012283 0.1520049 -0.043668807 0.5477927 0.548139 0.07414226 0.017159672 0.49049675 0.56413066 0.5248357 0.4651318 0.15802795 0.31392714 0.34570807 0.2679307 0.29393643 0.28535488 -0.10079053 0.23485777 0.30818343 0.2933514 0.29662615 0.4015401 0.19246164 0.16348404 -0.048940048 0.17856859 0.13704349 0.26075214 0.28217894 0.3447356 0.12680584 0.06857514 0.044914212 0.015535656 -0.004316517 0.25123584 0.17128885 -0.09644631 0.07740119 0.011998852 0.012540504 0.16328533 0.04563061 0.03843637 0.015820596 0.106623836 0.10164868 0.049063966 0.00709131 0.076728165 0.09271365 0.082874164 0.2688588 0.043352973 0.42364794 0.04851397 0.025902623 0.09275235 0.26828557 0.21737699 0.12802029 0.021195978 0.031416807 0.38542408 0.054563977 0.017418943 0.25256065 0.16276562 0.14323024 0.07066962 0.06941447 0.049928445 0.5147799 0.5039074 0.4780004 0.30191237 0.14018866 -0.10340467 -0.07811946 0.10420583 0.20081358 0.15078177 0.048225753 0.12153037 0.11468318 0.03615928 -0.12313605 0.3277503 0.5124628 0.50816226 0.4812913 0.18687692 -0.16087449 -0.1419304 0.12340674 0.11127029 0.18044186 0.1613844 0.08974691 0.1093897 0.10046733 0.23451498 0.48120973 0.47296846 0.44104904 -0.12249332 0.00013757497 0.014549568 0.31832254 0.15177184 0.111769795 -0.017876726 0.18966743 0.22672352 0.32688308 -0.095913425 0.053078726 0.14687829 0.32292297 0.34310937 0.30957794 0.12879932 -0.037301436 -0.0060049314 -0.013179611 0.25250584 0.150701 0.4065498 -0.17540236 0.0425271 0.1208754 0.20459129 0.1611193 0.031142248 0.012579132 0.013275616 0.40865764 0.36674672 0.3752545 0.037285477 0.11202122 0.18215641 -0.29421836 0.4948833 0.30851942 0.26359344 0.184542 0.21297176 0.029864695 -0.086042464 0.05964844 0.19339396 0.28784117 0.3824665 0.48110443 0.49917287 0.33092466 0.09481101 -0.12982592 0.16514516 0.15063386 0.21784593 0.33044362 0.5264714 0.5026617 0.35810962 0.37684214 0.15212557 0.08549596 0.19838208 0.5747955 0.5137219 0.59010434 0.47723496 0.3690889 0.37968805 0.34048894 0.3055694 0.097331814 0.007355476 0.28500888 0.3418597 0.25033233 0.254213 0.31737983 0.42577568 0.1725106 0.35980606 0.43952197 0.6371691 0.23056474 0.16540465 0.3989575 0.5521549 0.7545607 0.36623752 0.32302922 0.60930496 0.75452113 0.8033286 0.7489562 0.4585566 0.46546674 0.37821454 0.40704817 0.32252038 0.37594986 0.38120764 0.54247236 0.382321 0.56679016 0.39960736 0.41582412 0.5085647 0.46778613 0.52613765 0.6483811 0.70855373 0.72894657 0.29437009 0.33047566 0.37523973 0.7144891 0.71940005 0.17366312 0.33058384 0.3488245 0.34803417 0.32684463 0.6839532 0.7030983 0.40220153 0.41824287 0.42186278 0.2123287 0.5874461 0.6667526 0.389439 0.4732675 0.44227383 0.14657833 0.39069113 0.48142546 0.5036825 0.41006568 0.12297469 0.28960738 0.35320362 -0.017697021 0.029631196 0.45767766 0.54851204 0.6609673 0.75608885 -0.10666581 0.80475825 0.8083199 -0.20100756 0.7968931 -0.10779507 0.3751787 -0.29454184 -0.26670632 0.7797682 0.38280302 0.3570949 0.3029159 0.013482986 -0.021297138 0.39605135 0.7615274 0.7509028 0.44382218 0.39679635 0.3836448 0.18659273 0.5712869 0.5323571 0.062938124 0.58038604 0.5899681 -0.00033690035 0.62957096 0.6518928 0.20657344 0.26041555 0.33529195 0.63588905 0.6332798 0.37020403 0.53131175 0.7401315 0.61839736 0.6143627 0.6432481 0.649884 0.14482458 0.71007967 0.81402016 0.40830475 0.5286746 0.71101475 0.80845094 0.36328 0.28993195 0.56042945 0.68635786 0.3632939 0.29901674 0.13345784 0.3494167 0.33952168 0.20439284 0.18121201 0.036820687 0.06867416 0.17350802 0.087357804 -0.027090251 0.0776967 -0.17911686 -0.14106227 0.077857204 0.08547175 0.39781114 0.37414944 0.07896063 0.13958655 0.72060645 0.38195732 0.3814937 0.14886129 0.13631064 0.06828898 0.76902086 0.79575574 0.35585564 0.35306656 0.23991083 -0.049396396 0.31087986 0.75789464 0.8134819 0.07594535 0.1896449 0.64214957 0.73127365 0.76368815 0.2602443 0.16422299 0.16856554 0.21508941 0.36104828 0.25913924 0.7027317 0.40115285 0.5213527 0.23387277 0.5344378 0.5045593 0.27610445 0.5835894 0.53838915 0.46757877 0.5164228 0.21732168 0.47151434 0.37770972 0.49592352 0.2931321 0.48995838 0.51968986 0.23393293 0.28596696 0.36708233 0.10092787 0.22188272 0.44096667 0.2930828 0.24602266 0.32443222 0.2707526 0.24838261 0.23565166 0.22528437 0.2031958 0.17378828 0.080067515 0.07369146 0.48343238 0.4954319 -0.030767493 -0.0151292235 0.37881112 0.49201053 0.52039206 0.49743193 0.469034 0.10888595 0.092673 -0.05521356 0.38913858 -0.1043506 0.122317836 0.25135982 0.23484108 0.18437526 0.40977973 0.37172195 0.19933446 0.20927161 0.2229222 0.3177272 0.431189 0.46758544 0.31912738 0.39768267 0.3904645 0.39934367 0.039534517 -0.20410016 -0.04624168 0.06886306 0.4180395 0.3406022 0.2915138 0.33503684 0.28852013 0.032159504 0.06248664 0.23424448 0.12414324 0.15716851 0.058459282 0.036588576 0.085060