# vtk DataFile Version 2.0
Really cool data
ASCII
DATASET POLYDATA
POINTS 2405 float
69.20155 37.09479 25.541086
69.30989 37.14002 26.11037
69.36809 37.54531 24.025288
69.0477 37.7455 24.57102
68.911255 37.76616 25.409801
69.13992 37.516087 26.183392
69.21565 38.343987 24.049742
68.89948 38.53492 24.768188
68.85027 38.334095 25.490986
69.050316 38.38909 26.477583
69.22446 38.47565 26.861439
69.15386 39.103336 24.612873
68.90283 39.390972 25.565218
68.99841 39.546284 26.315357
69.23498 39.655758 26.956
69.24393 39.908127 25.109821
69.23131 40.302605 25.595669
69.17631 40.211582 26.46569
69.297714 40.26758 26.816208
70.43536 26.06094 17.840754
70.4491 26.172766 18.598341
70.28974 26.830675 17.892483
70.302635 26.70228 18.627487
70.38738 26.666233 19.082296
70.31042 27.490849 17.70903
70.277145 27.40573 18.495047
70.36981 27.348124 19.013144
70.341225 27.971653 17.795624
70.357086 27.930029 18.16885
70.090416 36.379642 25.56892
70.31004 36.721123 20.745726
70.120476 36.496696 23.587164
69.58066 36.862045 24.816542
69.59999 36.7545 25.689222
69.61571 36.903984 26.296535
70.34701 37.604275 19.852919
70.17585 37.541374 20.435244
70.15789 37.576626 21.490463
70.13604 37.730335 22.961607
69.891205 37.781155 23.475471
69.89615 37.59119 27.053762
70.275734 38.539257 19.70549
70.13497 38.427227 20.279634
70.2077 38.578346 21.421951
69.85191 38.52619 27.492157
70.03738 38.71363 27.698507
70.289665 39.1618 19.84311
70.24224 39.27766 20.663792
70.278175 39.165306 21.096088
69.54774 38.86824 23.78621
69.62758 39.338997 27.432167
70.05231 39.438206 27.753296
69.5358 40.64222 26.663181
69.55662 40.295223 27.048958
70.19889 39.91688 27.781008
69.7488 40.72106 25.180363
69.71116 40.918827 25.61574
69.70359 40.867123 26.27896
69.90214 40.83428 26.888542
71.15407 24.920073 16.978148
71.133095 24.76581 17.537977
71.10459 24.919258 18.185123
71.33306 26.047712 16.270424
70.96703 25.470999 16.883211
70.64377 25.715822 17.576271
70.64842 25.781467 18.482681
70.99831 25.80982 19.197445
70.770294 26.519379 16.811935
70.50765 26.505459 17.410404
70.739845 26.579197 19.478397
70.92633 26.660805 19.770903
70.7714 27.543745 16.895206
70.458374 27.524256 17.297728
70.49061 27.473381 19.18879
70.87663 27.47125 19.791136
71.37222 27.85359 26.851938
71.31214 27.863201 27.65496
71.338524 28.003408 28.157228
70.92437 28.112947 17.003681
70.68959 28.275223 17.548828
70.55813 28.386404 18.313597
70.77276 28.068258 19.14985
71.134415 28.028082 19.723808
71.31061 28.581373 26.013906
71.10058 28.5803 26.749975
71.06204 28.545382 27.44044
71.26477 28.44427 28.238644
71.15061 28.64254 17.444939
70.86871 28.681604 18.213652
70.98252 29.32305 26.591494
70.93448 29.672005 27.390043
71.200905 29.423805 28.161009
71.3702 30.127546 26.005669
71.11009 30.354994 26.78757
71.06107 30.255548 27.47279
71.12227 30.104378 27.870634
71.19403 35.119312 22.927017
70.82578 35.269985 23.537928
71.19889 35.331635 24.546991
70.83378 35.88644 20.800287
70.645485 35.886494 21.507769
70.58143 35.885338 22.561066
70.53311 35.71592 23.893566
70.94892 36.113937 25.485435
71.21429 36.99725 19.176058
70.84514 36.683357 19.830975
70.56402 36.623165 20.304443
70.57446 36.55984 26.416616
70.48935 37.057163 26.93681
71.04385 37.583088 18.93336
70.55331 37.548206 19.59622
70.553024 37.83586 27.381577
70.90285 38.51785 18.89513
70.493744 38.56681 19.384224
70.418594 38.73926 27.854687
70.94159 39.24747 19.053251
70.647484 39.34033 19.44937
70.50672 39.625668 20.132599
70.780304 39.342503 22.66213
70.5811 39.289734 27.977724
70.908424 39.828876 19.746399
70.826126 39.987045 20.391098
71.14211 39.921978 21.248352
70.75092 40.447136 27.56715
70.65822 40.082275 27.827068
70.817505 41.02834 24.149858
70.68382 41.328503 24.642952
70.40435 41.303905 25.629093
70.45884 41.313145 26.41606
70.41773 40.866432 27.08959
71.9316 24.39687 16.974125
71.82268 24.262262 17.78364
71.81571 24.311296 18.168026
71.85289 25.070572 16.224415
71.500595 24.665434 16.921106
71.431206 24.462967 17.617771
71.545975 24.609896 18.3132
71.660835 25.050982 19.073559
71.71295 25.418472 16.104078
71.46122 25.24407 16.35483
71.37132 25.75438 19.525251
71.619064 25.927067 19.734205
71.90926 26.361467 15.837471
71.469475 26.76245 20.126154
72.09375 27.184776 26.554832
71.87631 27.252735 27.491892
71.97119 27.327255 28.194815
71.64495 27.703926 16.418133
71.951836 27.35303 20.325888
71.82625 27.721884 25.81884
71.64555 27.591528 26.716377
71.54688 27.570314 27.449808
71.73788 27.634232 28.362448
71.851685 27.864388 28.750435
71.65945 28.318964 16.77531
71.95589 28.280058 20.071634
71.90606 28.533548 25.01806
71.60613 28.50977 25.616755
71.48349 28.407398 28.611689
71.872925 28.538273 28.877983
71.92159 28.693317 16.96573
71.66323 28.919157 17.474764
71.53482 29.115892 18.372808
71.59101 28.967995 19.282217
71.72795 29.211613 25.188797
71.517586 29.522854 25.673222
71.45611 29.536343 28.427586
71.81738 29.318853 28.73285
72.139755 30.161367 24.817944
71.71193 30.420675 25.72781
71.7263 30.339258 28.248741
72.2511 31.968777 22.645128
71.90507 30.96622 26.068027
71.5927 30.832678 26.494314
71.670494 31.046852 27.496786
71.79189 30.78433 27.932419
72.27475 32.867638 22.210644
72.17957 32.888153 22.569956
72.20019 33.971584 21.830233
72.21595 33.579372 23.013107
72.128944 35.1179 20.34559
72.12251 34.870304 21.292255
71.48125 34.712254 23.45425
72.03829 36.065353 19.113396
71.82299 35.455704 19.95177
71.30017 35.517826 21.182665
72.01307 36.742092 18.94187
71.45242 36.59043 26.54116
71.15128 36.98868 26.871027
71.99143 37.9996 18.419594
71.44418 37.80085 18.594187
71.33559 37.542202 27.267458
71.674995 38.394394 18.437742
71.458206 38.592785 18.55816
71.181526 38.706726 27.927269
71.835464 39.34977 18.677713
71.23569 39.35558 27.995338
71.70807 40.122208 19.185694
71.62218 40.325577 19.605091
71.61757 40.33015 21.448778
71.09747 40.548565 27.578602
71.30676 39.97101 27.898365
72.036316 41.179447 23.000027
71.55555 41.138927 27.164871
72.37248 43.223198 21.86561
72.301346 43.331158 22.496086
72.360306 43.890846 22.408262
72.3724 43.81136 23.001188
72.78526 23.988989 17.027264
72.41124 24.050833 17.558064
72.44806 24.150005 18.45194
73.0731 24.160297 19.14388
72.94696 24.38271 16.224138
72.823006 24.6154 19.409164
72.353035 27.223299 25.680807
72.648544 26.88654 26.334932
72.45535 27.020302 27.459116
72.43836 27.263615 28.32157
72.37401 27.429247 28.618832
72.52819 27.730373 28.861536
72.412895 28.47011 20.30306
72.955475 28.535006 20.634058
73.14792 28.76034 23.936697
72.37119 28.639442 24.431479
72.41263 28.49045 29.03624
72.49352 28.751549 16.657722
72.61478 29.48838 17.570566
72.50037 29.470224 19.694202
72.564705 29.090471 20.16798
73.28277 29.47571 23.69288
72.49473 29.39931 28.86517
72.86038 30.616495 23.223392
72.565834 30.23598 24.428612
72.976715 31.513084 21.934769
72.85539 30.87769 27.945082
73.12863 34.18521 20.28382
73.03638 33.40594 25.536531
72.99544 35.160355 19.132679
72.53079 35.051723 19.652016
72.74678 34.68413 20.48322
72.46804 34.290417 24.189484
72.68446 35.694683 18.97275
72.14214 36.285816 26.290071
72.69451 36.24814 18.682493
72.31362 36.526306 26.46741
72.58909 37.014618 26.721643
72.16912 37.362953 18.548042
72.22913 37.884945 27.219254
72.37217 38.36684 18.403229
72.63793 38.530167 18.519735
72.37667 38.752216 27.400913
72.0423 38.93945 18.443613
72.47086 39.397247 18.637804
72.20113 39.27898 27.681532
72.481445 40.22164 18.999529
72.94873 40.73142 19.32744
72.37617 40.8014 19.540005
72.60057 40.940525 20.824955
72.710915 40.892242 27.29859
72.46002 43.0297 21.904053
72.73317 42.774574 25.810366
73.138405 43.348164 21.025097
72.59874 43.563816 21.731375
72.55241 43.741592 23.578379
72.655396 43.744904 24.559444
72.63911 43.674282 24.94302
73.00573 43.777073 25.751965
73.22189 43.836704 21.04166
72.813995 44.101192 21.753325
72.71618 44.346706 22.492949
72.71936 44.15909 23.798494
72.84947 44.080914 24.278318
72.95828 43.985092 25.280172
73.21894 44.761105 21.974714
73.06823 44.717033 22.430769
73.13772 44.69288 23.084455
74.04823 23.31938 16.84889
74.00048 23.301397 17.569101
73.67852 23.705456 16.85965
73.25113 23.689491 17.771814
73.95976 23.624763 18.48961
73.40517 24.020447 19.031898
74.10284 25.135069 14.567299
73.53416 24.604847 15.776614
73.44781 24.632587 19.79016
74.36727 25.733423 13.256817
74.194046 25.743927 13.644712
73.63272 25.540071 14.922609
73.49833 25.619932 20.307741
74.09602 26.44457 13.67572
73.73999 26.20182 14.990869
73.31529 26.778444 25.753216
73.32518 26.840508 26.642994
73.259415 26.835997 27.062756
73.543846 27.303133 27.982147
74.34074 27.280476 13.296224
73.42812 27.568048 15.727809
74.05254 27.85882 24.210505
73.38027 27.356672 24.732534
73.122696 27.543484 28.539242
73.004 27.934307 28.879799
74.340965 27.992058 13.597987
74.307945 28.193506 14.674903
73.371445 28.051744 20.836573
73.86705 28.900387 23.600416
73.09175 28.690035 28.977257
73.598724 29.73154 28.516733
73.392 29.972149 17.8493
73.41366 30.218319 18.378752
73.79816 30.553009 20.1844
73.47262 31.204678 21.618618
74.35461 31.23044 18.491808
74.07636 31.657608 27.92231
74.11929 32.548447 20.345882
73.455894 33.18383 26.245506
73.411705 35.027176 19.132181
73.63282 34.62895 25.696976
73.52715 35.51448 18.919834
73.092766 36.042786 25.597834
73.20898 36.476078 18.728346
73.21215 37.81015 18.73831
73.53546 37.46612 26.54695
73.44675 37.983734 18.950554
73.17837 39.42341 18.767466
73.08857 39.400063 27.196634
73.17187 40.15922 19.007145
73.21952 40.9037 19.689795
73.08235 40.87798 27.21287
73.74077 42.46108 26.442602
73.59037 43.534443 20.82366
73.64484 43.578495 26.233496
73.65831 44.34503 21.189814
73.54972 44.472473 21.360144
73.37722 44.485912 25.267399
73.692375 44.08782 25.973515
73.84949 45.000095 21.930515
73.56439 45.010353 22.366093
73.721275 44.967407 23.640081
73.57037 44.80198 24.396978
73.847984 44.77352 25.298191
74.54232 23.148966 16.871626
74.60321 23.039886 17.327288
74.708885 23.319204 18.090864
74.77076 24.16279 15.104278
74.57856 23.452545 15.993516
74.641106 23.995094 19.206285
[...]
POINT_DATA 2405
SCALARS features_00 float 1
LOOKUP_TABLE default
0.5907701 0.64440465 0.43726048 0.5121565 0.6060411 0.66742104 0.44639292 0.55234087 0.63527405 0.72170156 0.72501564 0.53553027 0.6649475 0.7020329 0.7016172 0.60012925 0.62445235 0.6704096 0.6763835 0.6681047 0.66083336 0.68246007 0.67311156 0.662017 0.6851546 0.6846334 0.67373633 0.67835987 0.68453956 0.5446667 0.4367025 0.32498145 0.49918464 0.5837096 0.6372614 0.5752137 0.5204955 0.3890304 0.27027878 0.33893886 0.6800523 0.6300944 0.5824052 0.44918725 0.6910021 0.67963076 0.63119435 0.5618251 0.5103424 0.3705272 0.6936332 0.67435384 0.65957004 0.67464745 0.6625168 0.55740094 0.5964376 0.63839364 0.65511227 0.57747895 0.58554375 0.60547155 0.5678216 0.6076379 0.65248525 0.652273 0.62766534 0.65696824 0.67493045 0.64489305 0.633538 0.65295804 0.67556095 0.6680064 0.6297771 0.696073 0.7698569 0.81622374 0.61461115 0.64743894 0.67568815 0.6639588 0.60583854 0.6150996 0.6997738 0.7809998 0.83334506 0.59225446 0.6557716 0.6908709 0.79727644 0.824281 0.57705355 0.71401674 0.7787578 0.79263717 0.11975068 0.17477769 0.22412318 0.35836482 0.29130104 0.2201001 0.26991042 0.48569682 0.5411965 0.4967515 0.46796417 0.56225586 0.59293616 0.60053116 0.5878992 0.62677395 0.6603465 0.6532737 0.65797013 0.67374027 0.66301584 0.6112032 0.21543898 0.65205574 0.6495088 0.5832206 0.45119315 0.6317258 0.64224935 0.260193 0.39837825 0.5587726 0.61265117 0.64111817 0.49488842 0.501708 0.50188 0.48178983 0.5379821 0.54564846 0.5463923 0.54862857 0.48728824 0.5356729 0.5966392 0.57690275 0.46444386 0.5952245 0.67362505 0.7377436 0.7935976 0.53983855 0.50423676 0.6243954 0.68574655 0.7441566 0.8182813 0.83625513 0.52204716 0.48073912 0.4822511 0.56946945 0.84543663 0.8411894 0.48779145 0.5263166 0.605229 0.5956085 0.46309906 0.5228458 0.81360745 0.8094578 0.37514165 0.518973 0.74077237 0.05234427 0.54363704 0.6582754 0.74841404 0.73552203 0.06734614 0.06587417 0.011856809 0.04367876 0.33323485 0.17987745 0.11142139 0.46955746 0.39736894 0.2749576 0.49840277 0.44556835 0.4946912 0.55360585 0.5901994 0.50802314 0.60225123 0.6311998 0.61428726 0.6312853 0.61344707 0.65483123 0.65021884 0.3952589 0.60405827 0.5955751 -0.08395503 0.5346104 0.53200406 0.4966194 0.5481118 0.50514174 0.41715455 0.44877818 0.44160664 0.3829987 0.37281996 0.408635 0.6279564 0.644578 0.7161703 0.7804011 0.8050222 0.80797 0.41605565 0.33395153 0.32287657 0.39018467 0.81836057 0.37522382 0.37972823 0.39310074 0.36465734 0.23030183 0.74413776 0.094741076 0.2833423 0.060918942 0.48382068 0.2453523 -0.002054274 0.4265929 0.39976788 0.29772204 0.09233233 0.44555295 0.34644783 0.45296192 0.33378705 0.32428837 0.5130101 0.43135875 0.5340913 0.51551867 0.47065926 0.5930505 0.57566035 0.5088027 0.59834605 0.5385225 0.5866897 0.518059 0.30005866 0.50437045 0.42316407 0.57926464 0.5715829 0.46299902 0.43683013 0.4408124 0.48550934 0.61190045 0.5880586 0.5606455 0.47248188 0.45721847 0.47647035 0.6079881 0.58266807 0.53280836 0.34720814 0.3543946 0.35885173 0.38791054 0.33572134 0.3545701 0.35782403 0.30176225 0.30930206 0.4871115 0.4436086 0.32309556 0.2829167 0.45136976 0.33680296 0.5591462 0.5922048 0.6230098 0.6179007 0.5650326 0.24950382 0.33568427 0.5014728 0.7220694 0.7597914 0.5661846 0.37407973 0.30123833 0.27583355 0.7514466 0.48637253 0.12837055 0.14719406 -0.050202847 0.027115285 -0.029988155 0.09935377 -0.08651365 -0.018202983 0.41240746 -0.18980995 0.4051689 0.17789249 0.41677645 0.43731487 0.25847462 0.41226462 0.5073343 0.3041398 0.5155876 0.48046714 0.18283518 0.2982332 0.6129087 0.48297402 0.6280123 0.62440395 0.49875596 0.5100535 0.6295293 0.6095562 0.49727345 0.47138745 0.52469635 0.33767396 0.3361732 0.30969974 0.3342253 0.32865748 0.22033688 0.5056919 0.45546985 0.39597923 0.064650774 0.52701575 0.47031486 0.5587466 -0.08553082 0.34725136 0.4484809 0.6642662 0.60952246 0.24004155 0.4301206 0.5101062 0.66191995 0.5267279 0.61930794 0.58150005 0.43387634 -0.051745683 0.13029966 -0.04544961 0.119183004 0.04662028 -0.040424027 0.019866757 0.02489575 -0.046178646 0.044383645 0.3352358 0.30553234 0.21327329 0.34634382 0.33340833 -0.030348346 0.3802197 -0.16869044 -0.061720923 0.17050058 -0.057894208 0.15147194 0.37311822 0.461143 0.32228214 0.56957626 0.50453067 0.6213918 0.61435056 0.6106769 0.49947402 0.53388286 0.86694556 0.31953937 0.21246603 0.43361923 0.3487684 0.31418335 0.060701437 0.51956016 0.48278755 -0.0008262247 0.55505395 0.5428193 -0.04635158 0.5945449 0.5800627 -0.07976649 0.0045961514 0.0014265105 0.08658208 0.678565 0.3032639 0.23598419 0.651258 0.6481943 0.45823804 0.62401223 0.5961989 0.54870844 0.2938652 0.39747056 -0.04245493 0.033599377 0.28273958 0.0730165 0.12961806 0.16456263 0.12210416 0.049885087 0.08754581 -0.1419719 0.091284946 -0.11074077 0.0029299036 -0.17074786 0.11407411 -0.06805521 -0.05598504 0.08827582 -0.046104334 -0.034369618 0.0311585 0.40904358 0.45117134 0.4434811 0.5108774 0.5611063 0.48545069 0.83577836 0.81630063 0.76291 0.7057097 0.8076974 0.93178415 0.837602 0.7217663 0.829268 0.9291793 0.8523362 0.74242187 0.7831888 0.8157788 0.07896812 0.08331948 0.3941797 0.31503525 0.02374646 0.5069342 -0.018590387 -0.006275084 0.5365574 0.5192524 0.057251036 0.08913846 0.1064032 0.57081056 0.050162453 0.071322516 0.6212379 0.1963999 0.4538554 0.45685536 0.62509215 0.57656837 0.46498287 0.44733232 0.6073161 0.5712759 0.4229985 0.46908534 0.23402607 0.33758923 0.31804764 0.17367435 0.3190661 0.14543559 0.16348298 0.14679655 0.28584123 0.14304073 0.1256586 0.13355072 0.03961999 -0.053983726 0.092371725 0.024576783 -0.20318605 0.117720604 0.13922587 -0.13031784 0.20157668 0.22095463 -0.031845436 0.07214591 -0.07711011 -0.002778992 0.3696017 -0.076739825 0.36610943 -0.07672988 0.2167385 0.38898942 -0.1024509 0.625185 0.63580394 0.559319 0.3782162 0.44659513 0.62704515 0.7021135 0.4661801 0.7717688 0.74882865 0.46132693 0.618412 0.79441047 0.76688945 0.6944511 0.74229276 0.76793253 0.7912086 0.7321358 0.7350961 0.15419066 0.144512 0.2267279 0.26888007 0.23918453 0.037575703 0.40607038 0.34545928 0.003132984 0.028065655 0.51688457 0.47170767 0.13974142 0.11063878 0.51089966 0.070565596 0.4215535 0.5867165 0.44842583 0.030042825 0.46587276 0.44790274 0.5014285 0.425708 0.37686223 0.5385519 0.3825154 0.3803652 0.2539083 0.30868322 0.26186195 0.17608978 0.46736696 0.4338535 0.14011921 0.5051498 0.44053403 0.30636588 0.090320036 0.12074281 0.010109574 0.10534506 -0.053285733 -0.054972947 -0.033012133 0.06532438 0.064213425 -0.26485375 0.17654514 -0.1612243 0.23567215 -0.12752645 -0.119950235 0.21103036 0.13052614 0.31093752 0.1452298 0.23197168 0.41089302 0.026849134 0.49114943 0.25133672 0.38566327 0.49422932 0.06584436 0.012519836 0.1555075 0.24342605 0.3532794 0.022305656 -0.16362067 0.14883244 -0.18239735 0.20598868 0.1576768 0.27264428 0.16435263 0.22022006 0.44404408 0.37280568 0.49733546 0.3846609 0.6271831 0.6068034 0.39427352 0.42011976 0.689691 0.43024826 0.44403434 0.7357831 0.7088733 0.46753594 0.63899475 0.68624026 0.69969857 0.71274495 0.7057048 0.32583395 0.27854222 0.2067604 0.21880218 0.2601014 0.02150052 0.19598256 0.082740426 0.11444302 0.06922268 0.06407516 0.44184715 0.4620927 0.4063878 0.46077007 0.40821704 0.36201203 0.26347953 0.28988522 0.28414786 0.18215236 0.21495135 0.4331354 0.18224427 0.2531152 0.48084572 0.183561 0.32526684 0.4045316 0.5035498 0.47782654 0.043313965 0.108707964 0.23865464 0.33659476 0.023979075 -0.12572363 -0.06551665 -0.074043185 0.014678817 -0.012903899 -0.07853743 -0.11510879 -0.02091183 0.004650183 0.16319962 0.29144922 0.35592788 0.43377978 0.082643844 0.4956377 0.1123057 0.11197205 0.5084635 0.51145977 0.116638005 0.29337496 0.0829137 -0.033084072 0.16923526 0.23966205 0.11387205 -0.27614307 0.060418054 0.1400226 0.19744338 -0.21340464 -0.042988285 0.15721798 0.20562218 0.21856701 0.20594999 0.28544265 0.3918831 0.33794132 0.39072454 0.3841606 0.5426659 0.40202898 0.5715107 0.55531216 0.41421625 0.4151981 0.57637894 0.64683145 0.5595666 0.3809918 0.39471474 0.38676947 0.30217096 0.36632496 0.37160447 0.37411058 0.3201226 0.34120214 0.3383714 0.3143899 0.26395887 0.15521714 -0.041029617 0.08270101 0.07755586 0.13286594 0.2515716 0.23852989 0.2322416 0.38138437 0.1610147 0.122921616 0.062967986 0.19542977 0.3192771 0.39340207 0.42535084 0.42940655 0.019790411 0.3559314 0.29384845 0.20719284 0.29601538 0.3510576 0.3490408 0.3990515 0.40256137 0.43685058 0.47713935 0.5317441 0.46762183 0.4532432 0.47194996 0.544666 0.3163433 0.124431 0.32942885 0.5033636 0.5404949 -0.20107368 0.38396424 -0.1345636 0.2740488 -0.020391807 0.019963302 0.18862313 0.12055361 0.23469125 -0.011672132 0.16681392 -0.027308099 0.3724351 0.080648266 0.4091148 0.15047638 0.395074 0.17064375 0.32901958 0.2284827 0.05793762 0.15977749 0.14914206 0.079868235 0.17490786 0.1718398 0.16380532 0.15409167 0.3322724 0.2390958 0.19798361 0.20758966 0.43794578 0.3499802 0.31910798 0.5476406 0.5354481 0.5953361 0.3675713 0.36521325 0.4093634 0.3842078 0.4085196 0.39601362 0.40206677 0.47915673 0.45403662 0.43592125 0.38842237 0.39805567 0.3780406 0.25570345 0.2943874 0.3663748 0.34706742 0.21648768 0.34620383 0.32766455 0.09896478 0.21811187 0.43828297 0.21849564 0.08701485 0.3036656 0.45063347 0.31860092 0.31715876 0.46758968 0.07638319 0.4189958 0.050585784 0.20858657 0.3300697 0.34823012 0.36128098 0.3820119 0.04561054 0.28829828 0.24227661 0.19596688 0.27210346 0.31833825 0.29612446 0.2705432 0.4653613 0.32516325 0.58308804 0.36797592 0.2407999 0.5830488 0.5266489 0.5870315 0.5312952 0.57936263 0.3520798 0.35862905 -0.13059443 0.312629 0.28800404 0.22613311 0.2959667 0.009308752 0.13741747 0.26149014 0.1310648 0.06250329 0.105013534 0.08974781 0.116802685 0.16080764 0.23857123 0.32433495 0.23810056 0.44345462 0.3995487 0.27650547 0.27638692 0.56903017 0.5775409 0.40565395 0.29874548 0.6441345 0.65823025 0.62981796 0.56945384 0.510658 0.40511215 0.36827555 0.3493833 0.6434751 0.40916157 0.44139594 0.4923548 0.4876403 0.39122784 0.25429878 0.2846469 0.39888716 0.3999132 0.35903493 0.23268715 0.252036 0.34116787 0.32707617 0.18375586 0.30710468 0.3177197 0.30941617 0.26285487 0.49057066 0.38606128 0.29439944 0.31498554 0.3220873 0.32481095 0.54120016 0.4970197 0.32095903 0.28342485 0.52972925 0.49659574 0.2100603 0.19448473 0.47361755 0.37131095 0.2706414 0.19435942 0.2394138 0.20068145 0.10486691 0.21902269 0.23338488 0.34368816 0.47503778 0.18038309 0.586478 0.15232287 0.6517757 0.11673886 0.63494873 -0.16315766 0.5892325 0.20868394 -0.016212493 0.30718023 0.34996194 0.42425236 0.4107257 0.36653975 0.2961386 0.42382115 0.2683223 0.048993587 0.21707037 -0.44656056 0.12557133 0.35942906 0.12545146 0.38363874 0.2570342 -0.00075962394 0.3592592 0.25120863 0.0037565678 0.2584722 0.100670055 0.17043242 0.22259545 0.27600014 0.2907329 0.38990104 0.2675453 0.37773392 0.51034325 0.6333121 0.57402515 0.23161599 0.046718523 0.2813828 0.6812688 0.67946327 0.6782758 0.55301774 0.5374044 0.40964323 0.7108452 0.6987958 0.6743978 0.61865854 0.56284106 0.46156853 0.4679833 0.45001653 0.37392813 0.2835474 0.27707517 0.24943617 0.35966438 0.30206516 0.2658041 0.22995417 0.26661274 0.44378608 0.42960736 0.19892785 0.28377983 0.5121714 0.30918813 0.3197294 0.59987223 0.0014527887 0.22368777 0.3085035 0.32659686 0.3321975 0.30610758 0.5986221 0.5600641 0.48772848 0.032507204 0.4626264 0.3871041 0.35317248 0.06779027 0.10711102 0.10065164 0.16234753 0.23558943 0.19238256 0.32304722 0.4228275 0.499689 0.180578 0.18095767 0.6304989 0.5836284 0.09771693 0.5124017 0.5501001 0.24074137 0.07878871 0.34736687 0.3412248 0.40708932 0.41474634 0.3464517 0.44298053 0.44119233 0.29722512 0.4391533 0.3879121 0.066910625 -0.15278976 0.01295381 -0.06716365 -0.44502723 -0.13494037 -0.0420231 0.39020407 0.2516276 0.4732114 0.43540058 0.46467602 0.41551375 0.41490808 0.37381396 0.26744503 0.41162255 0.2164042 0.47083896 0.4487664 0.48929524 0.5780768 0.5085458 0.6774509 0.2068215 0.71520483 0.7155988 0.5776715 0.30655083 0.31118616 0.739279 0.7440015 0.7018193 0.6221534 0.39521563 0.39109558 0.57644796 0.35315478 0.49622196 0.6273227 0.6199016 0.32009423 0.31549463 0.32500038 0.115729816 0.6016601 0.55708855 -0.13954535 0.64185274 -0.3191438 -0.22909918 -0.03557108 -0.018177602 -0.013180807 0.3159983 0.3383973 0.33840358 0.6429602 -0.04949159 -0.007818356 0.10453613 0.11663899 0.5914575 0.29023916 0.519246 0.45662224 0.4226031 0.360037 0.13429357 0.09122069 0.12694004 0.17709592 0.23796192 0.17895567 0.34490138 0.42298275 0.1879648 0.4956649 0.17344327 0.55562055 0.132318 0.09056373 0.5174446 0.45024782 0.5031388 0.34766805 0.24413534 0.4049339 0.73375666 0.4294085 0.66190356 0.72050786 0.7431883 0.42536938 0.053105496 0.6440049 0.7072797 0.71887815 0.07454005 0.60215414 0.68369037 0.4469579 0.34542418 0.34889504 0.50699574 0.5516315 0.48516166 0.47405165 0.47089374 0.47395486 0.4452057 0.41080037 0.3967044 0.3503279 0.46407604 0.5085954 0.5047712 0.43273416 0.5278329 0.62636894 0.51087576 0.5288609 0.66096526 0.15804961 0.2252394 0.7112049 0.71883553 0.5180492 0.46431315 0.14461277 0.21145356 0.260782 0.24943802 0.7245537 0.7292788 0.66343844 0.61157966 0.56890845 0.63735366 0.76218414 0.7530807 0.46591008 0.5146749 0.67759347 0.6182593 0.44836828 0.37486985 0.35795698 0.19118728 -0.029303074 0.6099085 0.4903553 -0.09555789 0.6266493 0.019304805 0.630579 -0.11131448 -0.088398956 0.06861724 0.14350891 0.3921144 0.5797159 0.5241071 -0.09661942 0.23105086 0.2434209 0.347075 0.46726096 0.25349674 0.42329052 0.39200386 -0.015829764 0.051703278 0.12908922 0.13677025 0.15614222 0.16069353 0.35243702 0.18900725 0.51798034 0.15779084 0.4693351 0.5333975 0.12867372 0.47415102 0.50922596 0.0519163 -0.021279246 0.11390514 0.42263716 0.037804455 0.111692265 0.08455697 0.33150452 0.7483492 0.2885872 0.7598972 0.3639468 0.74714696 0.29849082 0.66584307 0.71104896 0.4747846 0.42355374 0.5712353 0.61678326 0.4492276 0.46530294 -0.33217925 0.52843 0.5646506 0.45761323 0.24045023 0.4422519 0.3797238 0.39267218 0.33745944 0.4415985 0.5161966 0.54458755 0.52931094 0.52378416 0.34127453 0.4896215 0.5284341 0.5278755 0.5446723 0.3464381 0.054549575 -0.03233851 0.027555753 0.02671475 0.16116817 0.1819271 0.12722725 0.323899 0.59490937 0.5870226 0.54748243 0.550401 0.6180953 0.64825636 0.75176907 0.8914832 0.82832694 0.7139455 0.561595 0.6186467 0.41938877 0.44330764 0.40892535 0.41301173 0.3324422 0.39342386 0.33998376 0.044721976 0.49141687 0.10706577 0.51849806 0.5015425 0.47168934 0.4598295 0.56325924 0.47429743 -0.038856104 0.38748235 0.48245698 -0.06258386 0.22656026 0.30538675 0.0066705523 0.10786316 0.0109919235 0.15439925 0.15540573 0.14092305 0.44526392 0.09820091 0.118607804 0.27796775 0.09003078 0.07446639 0.31825212 0.05798787 -0.021954473 0.123812914 0.1600028 0.6178097 0.7333828 0.75748104 0.77646947 -0.0012949035 0.7687901 0.6522533 0.683915 0.22226948 0.5851672 -0.17542008 0.49419916 0.54813963 0.3692203 0.26255846 0.32277474 0.31085408 0.423529 0.4506554 0.35808295 0.47636545 0.49683988 0.47932178 -0.19063324 -0.0060750395 -0.04543318 0.11204643 0.51258045 0.49552995 0.50027186 0.4149695 0.44002682 0.03545265 0.07195053 0.02985315 -0.033462018 0.53441614 0.52783257 0.53038365 0.7951648 0.9186975 0.8884976 0.74744684 0.5659803 0.6822013 0.6475115 0.47147667 0.5035711 0.54419124 0.51489353 0.42389077 0.44624072 0.5053693 0.4120453 0.46162772 0.4180501 0.39835885 0.26624167 0.18585113 0.5323804 0.5290473 0.19138046 0.14595833 0.47144735 0.5192969 0.5174086 0.49229002 0.39790434 0.07984018 0.09661962 0.13687788 0.09543264 0.4242882 0.3042597 0.01385998 0.32853967 0.22270809 0.048468944 0.012220524 0.13417077 0.06740285 0.15718853 0.16730475 0.12350158 0.10588068 0.110430926 0.06640903 0.10178519 0.11308956 0.096452534 0.36531442 0.60830945 0.6486286 0.041370183 0.69014704 0.69919455 -0.22298785 0.57567835 0.65701556 0.20674628 0.45778102 0.54699683 0.2716228 0.19320384 0.47212562 0.4735001 0.16643965 0.39206886 0.29841822 0.2994051 0.29955536 0.32737273 0.2688685 0.33389205 -0.2122539 0.35032505 0.028463501 -0.031267732 -0.11269122 0.03945449 0.10931657 0.037323527 0.72749865 0.78900695 0.82739013 0.61266935 0.6274514 0.6965101 0.72935736 0.5346349 0.63642424 0.58529145 0.5136782 0.5771853 0.44701472 0.47647327 0.58517295 0.4265048 0.47354066 0.5569563 0.56204665 0.46674156 0.22650999 0.53552 0.17292045 0.25896987 0.18452966 0.13213703 0.14249252 0.16552885 0.5072725 0.5354265 0.5280122 0.5092354 0.32288602 0.3097742 0.15052877 0.16751301 0.47945118 0.08401781 0.018490093 0.3049193 0.2940728 -0.08788222 0.22017819 0.37711048 0.2162031 0.22841486 0.35818443 0.15205635 0.44143954 0.41765764 0.08290109 0.19388735 0.13746855 0.11731684 0.14656451 0.13819072 -0.11986777 0.13030604 0.056316055 0.22926882 0.36174297 -0.0470904 0.45579904 0.55015266 0.6238512 -0.24088353 0.5772437 0.6112 -0.16890988 0.56315565 0.6262133 0.28182876 0.50047666 0.6051061 0.34269762 0.4152776 0.42332307 0.36237946 0.27381653 0.29668933 0.4182365 0.5031172 0.49476796 0.42142695 0.49703583 0.46228245 0.19679263 0.47541678 0.452017 0.2260762 -0.03305062 -0.109505944 0.19011727 0.27403247 -0.026046995 -0.04736048 0.14059623 0.29193896 0.1740993 0.11255139 0.6532459 0.5286902 0.566883 0.565899 0.5924294 0.51984715 0.51549095 0.5308121 0.6007214 0.6161746 0.5225258 0.51827115 0.58857906 0.5157844 0.53460133 0.52920914 0.5420259 0.57075745 0.52765447 0.50550675 0.45935842 0.1311735 0.16730437 0.081304535 0.07580584 0.15859804 0.20374583 0.20486848 0.4978387 0.5227647 0.5349694 0.4378813 0.49704877 0.42606276 0.3593452 0.34659994 0.2903593 0.17252511 0.3212465 -0.24576952 -0.56251097 0.51852727 0.4614948 0.5342152 0.06840333 0.06377673 0.5151389 -0.034352265 0.46238616 0.14137751 0.39387292 0.16095872 0.17470777 -0.13383153 -0.09203799 0.0910643 -0.28842375 0.3462351 -0.4230116 -0.25834876 0.40663868 0.53964674 0.2100915 0.55446756 0.33372948 0.26548606 0.24916215 0.39340955 0.35660517 0.20518783 0.32145476 0.49519932 0.5613824 0.53668094 0.5642843 0.5555794 0.08369131 0.5440843 0.5289714 0.13124885 0.49685246 0.45917177 0.17014894 0.33536014 0.20387058 0.0021648034 0.015540406 0.084278814 0.22054438 0.29578245 0.07473855 0.15813795 -0.027139736 0.2826916 0.40722492 0.3480078 0.1936944 0.5411142 0.57142097 0.5495679 0.16437866 0.3217107 0.29444775 0.108131126 -0.0020575821 0.21247669 0.16392879 0.4320172 0.43559343 0.32254162 0.31196862 0.22526631 0.22590165 0.26656726 0.36409384 0.44669348 0.32329184 0.2530672 0.35231385 0.53366095 0.59106976 0.24453837 0.59351605 -0.16179067 0.59365505 0.5836611 0.13831842 -0.005108364 0.17788784 0.23924917 0.14442886 0.12281336 -0.077924415 0.06795427 -0.15011695 0.1850139 0.20606452 -0.2788098 0.21698123 0.32596368 0.32488576 0.30185235 0.28041825 0.23280793 0.4291262 0.19442284 0.56111455 0.5492003 0.24317965 0.58973944 0.59824157 0.5929391 0.0751703 0.06392459 0.5874584 0.56305027 0.10927295 0.5406034 0.47137764 0.38012505 0.29461554 0.20465465 0.36279997 0.28695485 0.11034796 0.10059288 0.09214068 0.1044627 0.19999102 0.23333833 0.10592058 0.34520996 0.39515567 0.39979106 0.34155154 0.24131295 0.22579363 0.2685749 0.20456818 0.21292195 0.17072341 0.0817357 0.18558665 0.0961635 0.14495665 -0.016694669 0.006449923 0.27032095 0.37963444 0.5016159 0.6285327 0.66977865 -0.22499256 0.6585995 0.6582811 -0.2894739 0.6369813 -0.25858378 0.5716826 0.6027051 0.1408444 0.07384916 0.5395904 0.20191565 0.32812747 0.4233328 0.1801726 0.28385964 0.12599048 0.067980655 -0.09288367 -0.18645832 0.04410456 -0.30708167 -0.17084646 0.124430485 0.16262624 0.25377584 -0.09752397 0.29420656 0.33691925 0.28958791 0.34077483 0.6175659 0.26534298 0.5051788 0.37756664 0.3513998 0.5701625 0.16796203 0.20913503 0.6250776 0.61420226 0.6232327 0.64782155 0.05155145 -0.032492034 0.62770957 0.6001396 0.0842622 0.5340053 0.4681277 0.4139765 0.33693287 0.16593093 0.120125644 0.27727947 0.3213178 0.28311038 0.33585927 0.3527644 0.21221584 0.24700812 0.24510501 0.37172395 0.383117 0.36094773 0.24505419 0.22484472 0.2868815 0.11740412 0.23916467 0