# vtk DataFile Version 2.0
Really cool data
ASCII
DATASET POLYDATA
POINTS 8728 float
58.306244 18.679234 12.698173
58.171818 18.505913 13.330364
57.982727 19.000143 14.466315
58.209858 19.009779 15.001126
58.346954 19.457811 11.949031
57.8804 19.6077 12.973326
57.7852 19.582918 13.626743
57.80666 19.507967 14.251008
58.21494 19.39769 15.029971
58.21029 20.371077 12.826877
57.9356 20.325161 13.626752
58.008987 20.300156 14.382673
58.3152 19.911444 15.103093
58.221184 20.790457 13.850236
58.14947 20.78695 13.990967
59.294792 17.385492 13.253759
58.950455 17.684217 12.492076
58.648304 17.979443 13.726532
58.634346 18.134928 14.524717
59.155384 18.923548 11.021059
58.876514 18.453365 11.757743
58.70326 18.681944 15.287931
58.912487 19.666176 10.90017
58.52026 19.32401 11.592693
58.592205 19.368256 15.430346
58.94572 19.505531 15.62669
59.00613 20.290539 10.797142
58.67079 20.62374 11.572236
58.823055 20.357317 15.248686
59.00645 20.099045 15.575783
59.10198 20.985073 11.088682
58.94974 20.874056 11.244287
58.75122 21.058348 12.592643
58.6732 21.090796 13.666025
58.5203 20.909891 14.332436
58.887268 20.82963 14.922997
60.255726 11.257176 12.405486
60.287567 11.270638 13.091259
60.175514 11.676111 12.013177
60.054234 11.631783 12.550443
60.136395 11.676454 13.149999
60.14329 12.420016 11.944978
59.89507 12.323356 12.653729
60.001896 12.532216 13.136844
60.33675 12.714465 13.77032
60.212585 13.139601 12.048907
60.14703 13.149614 12.44826
60.098667 13.068461 13.223237
60.413563 16.039028 13.604028
59.864586 16.973616 12.442637
60.056995 17.196205 14.16715
60.181736 17.897049 11.057999
59.389606 17.654795 11.90449
59.796486 17.568642 14.629309
60.13735 17.456247 14.941603
59.678753 18.619265 10.858855
59.31125 18.28578 11.444959
59.45833 18.389479 15.51272
59.313408 18.837091 15.776589
59.730495 19.723314 10.299577
59.403923 19.612019 10.5523205
59.669838 19.474644 15.791279
59.720913 20.28661 10.361657
59.32449 20.476936 10.550344
59.43205 20.468771 15.474659
59.747 21.019363 10.72135
59.724888 21.499273 11.530145
59.371334 21.402159 12.485511
59.49721 21.406322 13.6257925
59.59943 21.306557 14.413236
59.51043 21.014067 15.035269
60.016766 21.574776 11.361938
59.72423 21.60429 12.244723
60.559822 11.233505 12.010156
60.574715 11.033868 12.403763
60.5563 11.074791 13.124862
61.059635 11.992597 11.34539
60.524494 11.588511 11.76116
60.508358 11.489382 13.437665
60.576843 11.94141 13.834793
60.7405 12.205305 11.3918
60.512005 12.392949 11.580442
60.56464 12.533842 13.998933
61.148876 12.913862 11.402946
60.74553 13.29518 11.677044
60.42794 13.371718 13.509158
61.097088 14.244528 11.834337
60.96953 14.643233 12.615276
60.801334 14.373444 13.401741
61.179928 14.248128 14.20667
60.681705 15.850092 14.087814
60.58749 16.602438 14.363682
60.75856 16.793697 14.880216
60.5727 17.707726 15.23162
60.48696 18.870813 10.359908
60.6834 18.434965 10.599853
60.22758 18.384857 15.52855
60.500217 19.557543 10.168715
60.154957 19.786642 15.703694
60.50225 20.248917 10.204408
60.34866 20.525507 15.367511
60.18812 20.428936 15.556895
60.527374 21.159813 10.78414
60.87614 21.424603 13.453443
60.232758 21.36505 14.281106
60.23723 21.135672 14.829142
60.58397 21.659586 11.555217
60.435303 21.669308 12.512929
62.40012 8.977054 13.047302
62.41077 8.6038 13.546024
62.336926 8.64368 14.383473
62.39592 8.478286 15.041255
62.35672 9.10595 19.738592
62.431236 8.694709 21.726028
62.34499 8.707934 22.613781
62.3437 8.591601 23.530382
62.364372 9.044025 23.945784
62.279186 9.791166 13.056323
62.27637 9.862552 13.673699
62.307686 9.326746 14.349258
62.491024 9.42373 15.469966
62.342846 9.636674 16.728533
62.32593 9.780325 17.197138
62.44425 9.3153515 18.768265
62.29696 9.589724 19.642338
62.187946 9.821379 20.016182
62.36937 9.281088 21.981028
62.266308 9.294956 22.581131
62.27523 9.296491 23.377716
62.367535 9.514832 23.949104
61.60134 11.183413 11.714545
61.863453 10.41151 12.772755
61.769066 10.7842865 13.072437
61.66301 10.822907 13.888616
62.276768 10.72481 15.294169
62.193684 10.256413 16.601591
62.196075 10.281444 17.174147
62.320885 10.381802 18.389648
62.302227 10.345477 19.339388
62.315525 10.4669075 20.324684
62.332127 9.835171 23.279226
61.48044 11.928753 11.265629
61.35639 11.509492 11.549706
61.78762 11.540856 14.495374
62.416065 10.963563 16.725622
62.424328 11.009035 19.791615
61.743492 12.514803 11.141657
61.34575 12.238372 14.289911
62.041805 12.694769 15.051317
61.719975 13.526992 15.050593
62.1609 13.503872 15.639197
61.471096 14.096033 11.542135
61.726303 16.205671 10.818897
62.04107 16.097954 15.064469
61.599773 17.12547 10.724889
61.834137 17.432146 15.37325
61.51981 18.844748 10.333221
61.71875 18.16187 10.554572
61.25138 18.189373 15.438754
61.156837 19.52471 10.207211
61.161133 20.069698 10.233879
61.392097 20.599033 10.600573
61.586742 20.285677 14.65848
61.795094 20.377184 14.786453
61.21783 21.107985 10.900664
61.434174 21.447077 11.518007
61.09543 21.007273 13.8103285
60.852406 21.37121 13.876334
61.04027 21.67793 11.676573
61.16629 21.677254 12.342401
63.366398 7.068808 20.90601
63.19757 7.160438 21.390547
63.184113 7.180659 22.624426
63.002373 7.3311114 23.237951
62.89239 8.091734 12.964168
62.7234 7.956127 13.513419
62.608128 7.8390713 14.521786
62.744034 7.9059944 15.210457
63.112324 8.173652 17.471127
62.97454 8.007842 18.604103
63.00943 7.781166 19.663927
62.827755 7.814651 21.254017
62.696003 7.7847414 22.593964
62.80026 7.719646 23.338991
63.089718 7.7759757 23.963818
63.050655 8.846345 12.380375
62.98308 8.325323 12.695915
62.48087 8.209296 14.230372
62.60247 8.406068 15.283522
63.164257 8.360261 16.644253
62.768623 8.839487 17.43239
62.723145 8.512942 18.55272
62.549595 8.597263 19.426195
62.700123 8.3551855 21.506086
62.62058 8.612549 24.15648
62.644444 9.530398 12.615985
62.53339 9.330006 16.16878
62.54495 9.602004 18.611513
62.571575 9.391846 24.285412
63.23333 9.6710825 25.363243
62.24555 11.1480055 11.740936
62.574802 10.786876 17.785149
62.587605 10.164868 21.434528
62.81216 10.424292 22.388704
62.737976 10.351807 23.34608
62.688774 10.261173 24.207394
63.110867 10.528947 25.182793
62.36472 11.7692175 11.1598015
62.70711 11.323523 16.24711
62.6774 11.148074 17.485569
62.573368 11.003917 18.608913
62.62803 11.234514 19.543058
62.696007 11.331196 20.446863
63.10562 11.395861 21.093576
63.27581 10.868453 22.770454
63.03481 10.963521 23.73814
63.12082 11.210446 24.495827
63.2789 11.172949 25.163847
62.566742 12.51882 10.900981
63.09011 11.994302 16.324095
63.116024 11.862236 19.771406
63.058323 11.865938 20.205416
62.484806 13.261876 10.788111
62.535427 14.53506 10.510178
62.727642 14.528277 15.862349
62.910828 15.361138 10.360789
62.2612 15.34524 10.53108
62.370934 16.647882 10.62041
63.00894 16.039131 15.307324
63.1558 16.694065 15.65391
62.28661 17.41795 10.466673
62.74665 17.75992 15.571138
62.971256 18.303503 15.609813
62.584496 18.916859 10.951287
61.983982 20.55558 11.047948
62.283237 20.146309 14.652159
61.731384 21.124773 11.442792
61.8455 21.209894 12.450312
62.202118 20.924755 13.443147
64.28241 5.207453 15.6242485
64.29086 5.595778 14.700208
64.02935 5.664523 15.543312
64.157585 5.666575 16.109287
64.12916 6.3246074 20.862
64.05581 6.389103 21.569729
63.643883 6.942292 14.034676
63.532368 6.6775723 14.912312
63.806915 6.591022 15.414836
63.81862 6.412494 16.09496
64.137436 6.6290894 17.171476
63.80526 7.228277 18.42781
63.515743 7.142174 19.94843
63.651493 6.8642073 20.481667
63.77071 6.6295424 21.66017
63.731564 6.810199 22.243423
63.648834 7.092308 23.54439
63.798782 8.098201 12.345645
63.671207 7.7565184 12.7712555
63.437466 7.40492 13.41735
63.697136 7.640737 17.751438
63.60996 7.6754317 24.175327
63.573307 8.71731 12.235603
63.648094 8.895209 25.35755
64.1518 9.088303 26.010647
64.05304 9.555387 26.165648
63.984055 10.373333 26.262472
63.431465 11.538206 17.60491
63.456028 11.481553 21.152514
63.46582 11.361887 23.766323
63.437096 11.664571 24.811234
63.528034 11.397153 25.320318
63.895435 11.168267 25.987366
63.018852 12.524369 10.915691
63.429543 11.89957 18.91096
63.341568 11.950702 19.574078
63.488342 11.946417 20.539038
63.749268 11.644022 23.78595
63.694153 11.852509 24.718966
64.023476 11.963265 25.382229
63.29547 13.790397 10.671853
63.429882 13.862013 15.999568
63.237644 14.778918 10.376023
63.398052 15.645672 10.298408
63.35091 15.995892 15.388839
63.399582 16.296066 10.435556
63.789215 16.194477 15.782853
64.2468 16.989096 20.613165
64.26052 17.06944 21.078278
64.44099 17.493557 19.223513
64.00027 17.56692 20.533934
64.100426 17.681622 21.309488
64.348625 17.903257 21.828325
62.955257 18.4935 10.788678
64.32029 18.530869 19.62974
63.99214 18.28761 20.695545
64.15833 18.251102 21.406527
64.368996 18.448418 21.794558
63.33368 19.242085 11.3484745
63.68539 19.541525 11.410303
64.16467 19.315643 16.266148
64.34386 19.303926 20.497305
64.365295 19.378023 21.013157
63.516705 20.052155 12.642325
64.39069 20.418875 16.504599
64.303566 21.00444 15.96017
64.77949 4.9159636 14.783338
64.67469 4.889211 15.541324
64.84165 4.8918552 16.18761
64.959465 5.6570263 13.677706
64.45501 5.365415 14.497489
64.41197 5.4926567 16.528975
64.76808 5.590263 17.056389
64.70714 6.2270527 20.519089
64.58249 6.211867 21.343777
64.69263 6.362659 22.040236
64.58048 7.0546155 18.577715
64.485306 6.5465927 19.716602
64.28166 6.7950125 22.842323
64.845894 6.8885455 22.940742
64.63321 8.030252 12.336914
64.455025 8.489582 12.206246
65.088036 8.538148 25.701925
64.48979 8.95272 26.192959
64.414444 9.8990135 11.611423
64.26578 9.438255 26.345171
64.38988 10.688328 11.440127
64.18489 10.652005 11.525521
64.957855 10.452373 26.934496
65.108795 11.889694 11.244248
64.61502 11.334696 26.49687
64.40674 11.79536 17.34216
64.198235 11.970197 19.000868
64.379585 11.903833 20.467993
64.48912 11.629243 22.890491
64.2685 12.185356 24.021698
64.49665 12.356408 24.622627
64.47028 12.49889 25.28228
64.59032 12.1421995 25.86841
65.17063 12.027694 26.67152
64.63936 12.658128 24.56005
64.70457 12.729352 25.14063
[...]
POINT_DATA 8728
SCALARS features_00 float 1
LOOKUP_TABLE default
0.6448816 0.7164419 0.79442024 0.7584003 0.6727176 0.7810109 0.81218034 0.81202626 0.7733145 0.7556895 0.7848275 0.80111676 0.7783978 0.7728768 0.78093195 0.50624675 0.538872 0.64166176 0.66903245 0.5968063 0.55736005 0.6961907 0.6758913 0.63634133 0.74494517 0.732195 0.74029636 0.75933737 0.76605093 0.7463475 0.77832764 0.7711689 0.72825944 0.7334408 0.7772555 0.7720417 0.74396485 0.6945418 0.7899972 0.8021206 0.74250793 0.8014395 0.8414271 0.7789408 0.6104096 0.7533003 0.77588654 0.7144933 0.15118513 0.44691774 0.32181048 0.46548456 0.51883066 0.41577837 0.364021 0.5661177 0.5489358 0.6036738 0.6725778 0.6815024 0.672541 0.69818205 0.7480832 0.7604672 0.73989356 0.7900158 0.75635743 0.7082015 0.68665874 0.71371144 0.73677194 0.7552252 0.70711195 0.7071103 0.67993104 0.6386032 0.6211643 0.7301409 0.64783114 0.5993818 0.6687571 0.7167826 0.5481293 0.5689782 0.6415793 0.5939212 0.5590544 0.5330971 0.461541 0.2834424 0.14094228 0.22156385 0.2265976 0.3286121 0.5370829 0.45939863 0.48693413 0.62979114 0.6881597 0.7365 0.6628805 0.6903664 0.7704596 0.5593081 0.6260974 0.6417196 0.7187756 0.6618879 0.35219246 0.3543179 0.28301695 0.22596684 0.3225502 0.43211502 0.4967336 0.5195888 0.5076929 0.28321457 0.2346412 0.23683208 0.16009471 0.21579853 0.24439362 0.28961498 0.34236258 0.36798826 0.4266931 0.46124637 0.47953045 0.482446 0.55386996 0.3883156 0.44089568 0.3428964 0.09520738 0.21974291 0.2558173 0.32374623 0.36644396 0.40884987 0.4368553 0.5482507 0.5901152 0.28917587 0.23855713 0.42317748 0.47876444 0.40070504 0.17559087 0.2920985 0.20017686 0.4760809 0.17084402 0.06849192 0.21359256 0.1156591 0.4208375 0.3168779 0.24361554 0.56933177 0.6592188 0.67397726 0.48507077 0.47056818 0.70753837 0.6657268 0.5121192 0.542095 0.68971217 0.63166916 0.38148534 0.41428638 0.47320622 0.5053073 0.4383922 0.41332453 0.31867614 0.21705642 0.14855902 0.2259772 0.2866338 0.40226012 0.5060745 0.52633905 0.52882785 0.41024578 0.4335801 0.32926938 0.20705931 0.13026063 0.20616663 0.24560232 0.29189163 0.41928542 0.5287043 0.33007967 0.18624936 0.2963322 0.5033421 0.53274506 0.44083738 0.3062541 0.36172104 0.32195076 0.3943361 0.45414066 0.5040251 0.38293868 0.21076477 0.28566104 0.36669555 0.43373898 0.45367146 0.43027127 0.2868979 0.38352507 0.4024088 0.4397459 0.31751123 0.16068052 0.4866594 0.48669186 0.30257457 0.21366736 0.14230078 0.17865418 0.19304909 0.18984817 0.017868418 0.030167948 0.21562774 0.03982533 -0.014365785 0.33272016 0.53315777 0.39731532 0.6095884 0.54332125 0.45107827 0.38016713 0.346199 0.34387097 0.33861887 0.3959602 0.41613775 0.36401063 0.2880078 0.2595514 0.23686649 0.13867664 0.13711132 0.31101477 0.35977226 0.42083415 0.44070703 0.47695363 0.37707257 0.42970654 0.45098183 0.097681805 0.49516013 0.38786525 0.45789495 0.36028206 0.39171624 0.47187138 0.35003278 0.43292278 0.3514876 0.3816447 0.42774564 0.4796905 0.21984737 0.466662 0.48619074 0.48210713 0.324386 0.35991314 0.38089052 0.13897815 0.09573338 0.16242245 0.17553806 0.018855939 0.18590586 -0.016723003 0.5055811 0.47189438 0.38820678 0.51235634 0.46934956 0.4244752 0.2874489 0.41462106 0.49233937 0.46328115 0.43174636 0.32989144 0.3130645 -0.07448396 0.4261613 0.42596364 0.22121687 0.25797018 0.46483976 0.38486487 0.40286717 0.40236908 0.34470844 0.35400397 0.35130504 0.3370145 0.3956357 0.41110614 0.41667342 0.088273406 0.33052343 0.43850338 0.41896144 0.18516056 0.2350568 0.16733259 0.28708255 0.16229619 0.34021118 0.058803007 0.08114382 0.2950446 -0.03674602 0.42035177 0.1691321 0.4306752 0.4407258 0.20424187 0.27683815 0.28456083 0.3165999 0.37473717 0.34602797 0.25794876 0.27659005 0.08744712 0.10532051 0.45000374 0.13615164 0.10940109 0.4255499 0.42173567 0.34397733 0.2893796 0.36103052 0.27269182 -0.03572862 0.19251691 0.3363487 0.36508954 0.285847 0.2997586 0.27770606 0.03260862 0.38584083 0.4013285 0.38130713 0.3198564 0.25234863 0.20907494 0.28231177 0.30494565 0.35372612 0.32269758 0.41178617 0.29214984 0.26961756 0.288573 0.49878228 0.5425946 0.4667241 0.4130298 0.5458246 0.272318 0.33326447 0.37307703 0.38306707 0.39451316 0.2876453 0.30500376 0.3470441 0.40263075 0.40065718 0.39858508 0.2759579 0.37828788 0.40354836 0.4014926 0.38332552 0.5855011 0.5321132 0.08894546 0.2690575 0.36071086 0.5108491 0.42091644 -0.016611582 0.3485702 0.11630655 0.13361561 0.14978044 0.12069337 0.032984857 0.16833963 -0.058648635 0.049564153 0.13860968 0.26890182 0.22613698 -0.009613469 -0.26721132 -0.15009657 0.047751144 0.28679523 0.17347363 0.28073725 0.05075912 0.036648378 -0.32024854 0.17432877 0.19609708 0.22155103 0.25473863 0.23603156 0.036936104 -0.19869405 0.06079019 0.11533895 0.008260481 0.22993127 0.41790044 0.13745183 -0.038818806 0.066637136 0.20574084 0.24068245 0.121880405 0.27205917 0.22572134 0.10898402 0.15603986 0.2876695 0.2560938 0.17213595 0.16007215 0.18190297 0.13923249 0.25060287 0.17294416 0.20848076 0.2688396 0.09044536 0.19052008 0.39638066 0.46297526 0.29897055 0.24478316 0.23625779 0.50695086 0.5552323 0.5233571 0.2107452 0.18566284 0.34959805 0.36583224 0.3925888 0.7104378 0.71448225 0.68818176 0.18531756 0.39816952 0.3873639 0.6309755 0.67237926 0.65194905 0.5032845 0.25035694 0.048447184 0.5762832 0.5938566 0.448407 0.37373438 0.003983408 0.06289494 0.28118414 0.46090996 0.35617238 0.33749402 -0.08268552 0.27008486 0.27914205 -0.18400726 0.15660389 0.22591472 -0.051681105 0.15553023 0.2099404 -0.038916472 0.17560224 0.24184707 0.1541827 -0.18079777 -0.047406226 0.088067725 0.20262383 0.27312323 0.28012842 0.40240356 0.40370512 -0.15809335 0.24413586 0.2639377 0.33776963 0.05635178 -0.39688668 0.07064741 0.21211994 0.21584585 0.17858148 0.023323432 -0.4047998 0.041811883 0.0989774 0.12682904 -0.39399767 -0.027206719 0.07321982 0.028970528 0.07812148 0.10981828 0.17363006 0.1934234 0.30476844 0.18445642 0.21471216 0.3213448 0.4313302 0.540279 0.11309944 0.10023188 0.17952353 0.21533564 0.43650532 0.5518381 0.611525 0.21944213 0.258168 0.184244 0.49268275 0.7228327 0.77533025 0.3698085 0.3829143 0.32236505 0.24140862 0.78730935 0.7995878 0.42683977 0.45032477 0.39508235 0.4448772 0.4522472 0.44430578 0.46580806 0.48757076 0.4950271 0.41823924 0.4783814 0.4851284 0.2570895 0.23053612 0.23954341 0.24133314 0.28224894 0.2566326 0.22041073 0.23131365 0.1817134 0.2618329 0.24723044 0.2228348 0.19394264 0.09552495 0.1393353 0.29308552 0.35284263 0.3610276 0.7104349 0.72394073 0.66570723 0.51064324 0.2586873 0.22469302 0.13812137 0.35839897 0.60071295 0.6458809 0.48359013 0.36957934 0.30770642 0.23018497 0.12525973 -0.028045073 0.19498931 0.52591795 0.46660197 0.34215015 0.3202154 0.3221904 0.25135702 -0.14434278 -0.036303367 0.079021454 0.2030419 0.31343007 0.35626325 0.24443129 -0.14235519 0.15481235 0.31311083 0.33462042 0.3196444 -0.39949867 0.28259265 0.34647304 0.26444483 0.26424453 0.27313343 0.8557933 0.82649004 0.75044537 0.32797784 0.37183404 0.30848745 0.08465233 0.28638718 0.2851341 0.8559617 0.8782191 0.9104905 0.8015126 0.37410125 0.3948697 -0.6048073 0.28382835 0.3033244 0.8150033 0.8181922 0.8389365 0.72192025 0.3019363 0.36678484 0.04326647 0.18529952 0.7526828 0.7303374 0.631542 0.20851861 0.12168787 0.008289799 -0.4036763 -0.04626888 0.080427036 0.15825501 -0.050861955 -0.48173434 -0.30497327 -0.1569455 -0.2586151 -0.05440871 0.19584769 0.13438681 0.1674607 0.25735974 0.34762353 0.4380302 0.085964724 0.5200355 0.66112304 0.71725595 0.15347427 0.7863318 0.7838238 0.35494614 0.69233084 0.79130685 0.8160073 0.81020534 0.39630157 0.4273111 0.18689772 0.4602183 0.6705512 0.76634836 0.7955774 0.43856442 0.43503714 0.36128286 0.28397024 0.26121807 0.384089 0.4496936 0.47513592 0.4680391 0.38034216 0.36527085 0.32508948 0.20920031 0.37953195 0.36011654 0.29306164 0.21621746 0.22112702 0.25050783 0.20256968 0.37112075 0.36588356 0.33615336 0.258004 0.22096753 0.23652971 0.20481163 0.29203895 0.31718954 0.30408254 0.19094948 0.12132848 0.20218423 0.6832781 0.6244062 0.27100196 0.2719584 0.25715777 0.3124901 0.650648 0.61007214 0.48609164 0.41820002 0.279473 0.25944722 0.23665482 0.36242652 0.32127506 0.33495113 0.30756688 0.13788925 0.37521267 0.32541084 0.30729356 0.36458313 0.35981002 -0.23371314 -0.21114278 -0.093585834 0.18251282 0.31289408 0.33315986 0.35584992 0.07162303 -0.121185794 -0.05628656 0.36083555 0.32169914 0.19698432 -0.3011284 0.35341728 0.3651889 -0.19563833 -0.33634427 0.3364276 0.34471172 0.72971773 0.67680097 0.66020274 0.25664836 0.18380043 0.22389361 0.06965101 0.27944332 0.82990015 0.8284998 0.74539745 0.677984 0.60653126 0.20662463 0.27627933 -0.44321612 0.27792147 0.8422437 0.6320846 0.17660925 0.27067515 -0.46631572 -0.43834788 -0.4658512 -0.065096416 0.29679063 0.283505 0.77391875 0.7751782 0.62476647 0.47950214 0.22913018 0.25202692 -0.49425703 0.15726711 0.25802344 0.67971706 0.69179016 0.67721903 0.53422785 0.47349304 0.21432267 0.15943198 0.13247618 -0.49968272 -0.024353446 0.5938163 0.57844627 0.5043753 0.4200483 0.13469885 0.118488 -0.01687235 -0.009814803 -0.059162617 -0.5166028 -0.42519015 -0.0230247 0.09204061 -0.0751183 0.15683842 0.21441019 0.23769206 0.45862687 0.032441538 0.5300615 0.5723128 0.6824546 0.2706279 0.786693 0.35501754 0.4563357 0.7972218 0.7950437 0.38370147 0.40113065 0.32489654 0.2814994 0.4455157 0.6330217 0.725115 0.77022636 0.4019765 0.36985537 0.29608062 0.33041123 0.40246147 0.41096446 0.42617527 0.3758155 0.37833673 0.30897337 0.36238742 0.37448108 0.38188222 0.32521713 0.22456354 0.3774659 0.375812 0.34376615 0.17995481 0.35675037 0.38103178 0.23410597 0.19499302 0.13451003 0.35412812 0.15185441 0.08806749 0.2767852 0.095987104 0.26411155 0.17046417 0.47553265 0.52189076 0.47688755 0.45484248 0.37545174 0.25342655 0.18211819 0.1749335 0.17044279 0.2369868 0.33309132 0.306383 0.33702594 0.1587969 0.28822485 0.2864316 0.33445802 0.35900408 -0.25759825 -0.10793888 0.013206147 0.31222242 0.30867267 -0.42202812 0.37016326 0.366908 0.1422342 0.36721617 -0.1985445 -0.08036116 0.34362528 0.6635902 0.599915 0.484892 0.052321307 -0.08655351 0.23758203 0.76873976 0.70635813 0.50254184 0.13853042 0.15336856 0.20635347 0.78003347 0.7281877 0.59985095 0.60993004 0.11691671 0.5369119 0.50480837 0.48563504 0.3274795 0.0872347 0.14123416 0.11091441 -0.08165788 0.12038322 0.46588886 0.47614276 0.4188331 0.23330075 0.016686013 0.090321384 0.09332171 -0.09913926 -0.10191432 -0.06618801 0.1519898 0.14677794 0.1880275 0.26083788 0.3343495 0.36118942 0.31706882 -0.025203101 0.44222215 0.20887133 0.61849105 0.26912814 0.6885711 0.7120151 0.36895016 0.6088794 0.74969125 0.76952124 0.38740605 0.37489408 0.33359814 0.22898632 0.41994163 0.51064885 0.6324172 0.3628976 0.25634366 0.29393268 0.13349895 0.12556136 0.25095278 0.25604987 0.2909608 0.32142407 0.3997796 0.2537596 0.33025303 0.339202 0.2506385 0.3064899 0.34564328 0.14826609 0.02168144 0.33884275 0.30043495 0.08579653 0.24527013 0.08386923 -0.07248447 0.2066501 -0.08940389 -0.23491028 0.16024755 0.053778246 0.13112772 0.033024453 0.013556361 0.11932779 0.09821743 -0.08688006 0.23540631 0.2907349 0.3669996 0.31906277 -0.01832378 0.16354023 0.020996347 0.2815308 0.28163946 0.58735925 0.4642069 0.00062580407 -0.09261335 0.040111832 0.15156141 -0.35837337 0.27965742 0.2513465 0.12189477 0.30336213 0.16620636 0.32836956 0.21903111 -0.060520004 -0.08621126 -0.22570883 0.2966352 0.24343517 0.1949299 0.114625186 0.0076623317 0.5996804 0.13008842 0.11626403 0.56011796 0.07767118 0.48798218 0.41375583 0.13209492 0.40941107 0.39792338 0.32473075 0.1653319 -0.006061837 -0.009946657 0.05211683 -0.012628878 0.0034289258 0.117267236 0.0919275 -0.056487206 0.13320464 0.26625437 0.3823601 0.42830348 0.41585398 0.06184005 -0.483307 -0.45920473 0.1079804 0.410436 0.4217173 0.19906738 0.52174056 0.3044184 0.5712452 0.35235807 0.09681128 0.46551377 0.6182397 0.38369948 0.35390225 0.3085931 0.14036016 0.08340186 0.25737473 0.21672334 0.23062593 0.24243887 0.21695894 0.18960726 0.16355582 0.38926977 0.4398834 0.45104733 0.4535677 0.34615186 0.3154357 0.40073144 0.44788772 0.4506824 0.4244172 0.29034868 0.21917193 0.38453615 0.40005258 0.36952966 0.18496256 0.18273951 0.22972943 0.16748917 0.0905485 0.039430074 0.082367584 0.12902284 0.67489517 0.6878259 0.1726934 0.016103711 0.047283012 0.63115895 0.65100205 0.6689688 0.67875314 0.067502744 0.2197505 -0.15842299 0.19995269 0.307675 0.35276246 0.56774914 0.59650666 0.6090816 0.63104016 0.17777514 0.2183176 0.32023233 0.3462618 0.32244253 0.33815068 0.47840846 0.5569852 0.13835427 0.20850398 0.24063364 0.2779649 0.32413843 0.34018984 -0.13606721 0.11819473 0.64430785 0.604499 0.15704583 -0.034587476 -0.06662372 0.07928668 0.003639549 -0.1359523 -0.13707927 0.17475371 0.24560803 0.6531829 0.6421647 0.5597806 -0.31761062 -0.20467335 -0.10412312 -0.02875609 0.20586258 0.13988167 0.6279217 0.610338 0.42662245 -0.1381025 0.17299443 0.5184667 0.33614996 0.13961534 0.07345544 0.21763939 0.2611487 -0.38671833 0.22530109 0.48251086 0.45505124 0.2201318 0.11720048 -0.13930051 -0.20851794 0.14675334 0.44747484 0.43925622 0.33778617 0.05749736 -0.07383177 0.052066736 0.38758677 0.050036386 0.109698065 0.21047764 0.31955957 0.17300002 0.20823532 0.27785963 0.034287777 0.14006859 0.32562694 -0.06124712 0.27798036 0.30311397 0.062280096 -0.022039017 0.32538924 0.2055611 0.072180696 0.02165411 0.08287208 -0.021483812 0.069073536 -0.0102647245 0.02443882 0.21473452 0.19605282 0.27509564 0.34032786 0.23836529 0.3270272 0.3058308 -0.18150347 0.007552758 0.46168825 0.44965136 0.45759273 0.32230467 0.41404614 0.401289 0.38551158 -0.42057014 0.15825939 0.50624734 0.52794677 0.5151828 0.21205017 0.31528103 0.30665478 0.110274404 0.10818261 0.13986032 0.3228142 0.27919105 0.101270676 0.124188796 0.24763635 0.29963472 0.31726578 0.25808367 0.11675018 0.29184583 0.5508769 0.46557254 0.44928688 0.43965968 0.45749095 0.45441523 0.44263086 0.4495826 0.45095775 0.43953937 0.4233459 0.38703573 0.38717452 0.38509208 0.40052143 0.30764708 0.3189518 0.31384915 0.29692703 0.21677205 0.17366031 0.6736729 0.678267 0.6691874 0.08656714 0.08309625 0.0055933 0.6205475 0.67503667 0.69473016 0.68643737 0.6801888 0.04331711 0.00993596 -0.07069273 -0.0056071803 0.26316634 0.28679794 0.26823255 0.50585735 0.5948701 0.67369413 0.66902786 -0.03245695 0.1776022 0.2656147 0.32657635 0.3104676 0.44562763 0.48325622 0.59771276 0.62722117 -0.043746363 0.153308 0.2778041 0.39577937 0.49099717 -0.010265071 0.14279357 0.14891921 0.28658345 0.4747635 0.55032253 0.5036528 0.3148184 -0.1632298 -0.012254253 -0.25327381 0.24366298 0.59703195 -0.23543215 -0.1628426 0.067791454 0.07110813 0.5873194 0.6332575 0.0071164966 0.5940894 0.63933414 -0.020637698 -0.034913972 0.5888515 0.41393164 0.21557781 0.081060804 -0.023338057 0.007332133 0.081527606 0.52653944 0.5303422 0.41549113 0.269159 0.16009308 -0.38201916 0.08962153 0.098205864 0.4888746 0.5025789 0.03172601 -0.009838131 -0.30164868 -0.021069147 0.46570888 -0.007914359 0.42990842 0.14988995 0.18684754 0.37009853 0.21297365 0.35400438 0.32846528 0.18542193 0.20657626 0.29649043 0.06985165 0.25258687 0.23954563 0.08065199 0.2672993 0.30768323 0.109104425 0.15846458 0.37022874 0.3501353 0.16023424 0.16805582 0.38434565 0.3554599 0.2589823 0.22792624 0.24491023 0.15947257 0.07232138 0.23592076 0.39814347 0.45508617 0.4713209 0.26661342 0.26361933 0.23906113 -0.23685811 -0.16000138 -0.24104251 0.36489174 0.3009586 0.4385271 0.53209686 0.55651104 0.54276 0.10561275 0.54883105 0.56753343 0.5620638 0.06816284 0.030899927 -0.007979572 0.11790544 0.10839861 0.21461621 0.12989388 0.119931646 0.14331436 0.15322395 0.28074068 0.33126763 0.31534857 0.26819554 0.16724536 0.10602231 0.31757665 0.6306035 0.6411419 0.5952002 0.5269757 0.4437058 0.5678258 0.593349 0.58486545 0.5142716 0.4340917 0.4091735 0.46479136 0.5030385 0.3965964 0.31365395 0.3886866 0.42258286 0.29859015 0.28081775 0.27030814 0.15541163 0.08390478 0.48626482 0.59937334 0.61348736 0.6500088 0.6463385 -0.014573365 -0.037901603 0.05734265 0.5082751 0.67122793 0.6669389 0.66063994 -0.023743443 -0.037672 0.09421831 0.15600829 0.23448586 0.18625292 0.43072104 0.6695801 0.6580889 0.040450923 -0.04657764 0.29629907 0.6237606 0.5766566 0.11968933 0.06002313 0.15939239 0.29624188 0.06642985 0.09322216 0.51596296 0.49469924 0.10685857 0.12470194 0.54413486 0.06568717 0.044323847 0.5405896 0.5751176 -0.051878616 -0.075574815 -0.032502443 -0.3503872 -0.047652952 -0.04329563 0.49623936 0.50508344 0.49696478 0.415741 0.25738627 0.0781614 -0.06651389 -0.388799 0.48747507 -0.049988966 0.42307 0.44411916 -0.041899744 0.4142561 0.12712102 0.38163948 0.19971573 0.35906518 0.3268981 0.19791394 0.17417146 0.31557852 0.15545586 0.13552731 0.26062033 0.24448815 0.13471732 0.12582926 0.29050472 0.1778597 0.14364445 0.35098547 0.37598518 0.19262818 0.3866106 0.3726664 0.25679946 0.022120722 0.13660277 0.11566326 -0.10891537 0.22867279 0.19337574 0.21176225 0.24193521 0.3545217 0.30672574 0.021155663 0.22155938 -0.10124308 0.25753987 0.27911934 0.2254805 0.39720815 0.49928606 0.518803 0.36477417 0.33664864 0.16134039 0.100544594 0.2463743 0.34285635 0.31542927 0.28701392 0.52160096 0.5650794 0.547775 0.40023476 0.23404658 0.26276523 0.3776961 0.27591428 0.14604849 0.39202076 0.33854473 0.14479968 0.13539149 0.100524835 0.062374048 0.11313541 0.14207026 0.20093647 0.2833883 0.2626825 0.2448189 0.118594304 0.09481776 0.5688434 0.63237584 0.6445049 0.6005172 0.5014054 0.42365468 0.53181773 0.58264285 0.3340377 0.422992 0.24892661 0.27299887 0.31371787 0.18530604 0.15840058 0.20488352 0.048995115 0.13789222 0.0045949332 0.3677891 0.36730677 0.5367172 0.5378728 0.59937274 0.046399534 0.28882945 0.32902387 0.6098634 0.6446811 -0.014558598 -0.0042424053 0.09496653 0.02021189 -0.0075057 0.10934685 0.61463904 0.0835598 0.04471024 -0.0798236 0.57229996 0.12833107 0.1955684 -0.14491497 0.35317048 0.30703163 0.08367228 0.39848453 0.14662671 0.15876076 0.31191146 0.0616861 0.15879416 0.17389712 -0.067823134 -0.09486489 -0.110186994 -0.037800223 0.42333627 0.3611489 0.27585268 0.18252528 0.1743525 0.4238251 -0.00020658225 0.40447223 0.4105568 0.38638553 0.08563806 0.36399037 0.3579226 0.13915668 0.34768558 0.32373238 0.14890781 0.285289 0.2158521 0.13524875 0.1709155 0.12990376 0.21448469 0.23376077 0.14541839 0.12747343 0.3178714 0.6582463 0.7794553 0.85556155 0.8786831 0.3119985 0.2952259 -0.07385796 0.064505875 0.61470485 0.76183677 0.8655949 0.9277302 0.17862731 0.18960896 0.116022795 -0.27414602 0.16898973 0.6200042 0.7498667 0.84341216 0.925487 0.191445 0.2392571 0.3661787 0.4155352 0.36516905 0.23175132 0.23190695 0.1193821 0.22416617 0.72379184 0.82457125 0.89545107 0.40732872 0.5343523 0.53405684 0.39995527 0.4111548 0.006659806 0.075108945 0.12374659 0.19066787 0.14701931 0.4821325 0.43343398 -0.020958433 0.049428463 0.42849725 0.4817087 0.38071683 0.30298167 0.12888184 0.044482872 -0.09341018 0.029794464 -0.008248355 0.02872789 0.020299988 0.05973471 0.12619634 0.12196749 0.16793498 0.53546417 0.61253643 0.6007486 0.50995195 0.44897604 0.33835828 0.52453333 0.57001334 0.16718808 0.38621902 0.27996278 0.082155295 -0.004129174 0.20583954 0.08240062 0.10001025 0.1838689 0.20626612 0.3174382 0.11420172 0.091489226 0.111059055 0.19881266 0.25610048 0.36706918 0.39770344 0.5100303 0.08136945 0.058455765 0.2228586 0.54138994 0.030123513 -0.19796892 0.49105692 0.06858528 -0.005089298 -0.19675079 0.48694813 0.105104886 0.2955805 0.13481355 0.1273815 0.18127245 0.10872412 0.16363177 0.2586306 0.18319604 0.19415304 0.26324478 0.14169477 0.07001865 0.0048726653 -0.04458242 -0.112111054 0.052246846 0.5565046 0.664009 -0.14851281 -0.10479266 0.27279204 0.62162435 0.31141677 0.21570595 0.06725175 0.25115067 0.4197479 0.5018071 0.34934694 0.30091384 0.038569693 0.3294651 0.37729555 -0.10440259 0.38744438 -0.026420109 0.37512943 0.3546931 0.051664628 0.24169216 0.12534341 0.22179061 0.18541253 0.039239436 0.1356135 0.12377888 0.09699246 0.12604363 0.51157373 0.65614927 0.7322434 0.79509467 0.23201354 0.13920614 0.83939594 0.8736249 0.11