# vtk DataFile Version 2.0
Really cool data
ASCII
DATASET POLYDATA
POINTS 9261 float
-39.628258 10.844211 -37.432594
-39.606037 10.831546 -36.65139
-39.589252 11.531672 -37.829647
-39.67218 11.446958 -37.535667
-39.65735 11.402983 -36.80014
-39.605305 11.97305 -37.46189
-39.589115 11.962676 -36.994785
-38.682728 9.029278 -37.302616
-38.917397 9.3082485 -37.017696
-38.806923 9.701187 -38.18916
-39.19479 9.85641 -37.327095
-39.12973 9.729911 -36.627777
-38.924847 9.887037 -35.676693
-38.81305 10.1194725 -35.187378
-38.709007 10.675066 -38.676968
-39.223618 10.6156225 -38.12421
-39.459602 10.493891 -37.442917
-39.47865 10.628571 -36.252377
-39.242363 10.465997 -35.640343
-38.99739 10.583225 -35.194546
-38.900684 11.070703 -38.66672
-39.247253 11.5280695 -38.28105
-39.524704 11.619475 -36.39673
-39.308617 11.313941 -35.790234
-38.9647 11.065165 -35.171486
-39.139 12.159633 -38.108093
-39.3104 12.40668 -37.42582
-39.213207 12.26268 -36.663403
-39.156036 12.036815 -36.181267
-39.046223 12.617025 -37.420143
-38.86269 12.700314 -36.82694
-37.761482 8.306315 -38.16068
-37.949856 8.384332 -37.63111
-38.036415 8.668608 -38.303154
-38.296257 8.654622 -37.674225
-38.29135 8.811619 -36.744644
-37.973095 9.296789 -35.473244
-38.096336 9.765705 -38.98727
-38.357056 9.4425955 -38.647507
-38.46128 9.644445 -35.41758
-38.405964 9.793126 -35.21553
-38.23602 10.498248 -38.98494
-38.612522 10.179052 -38.56185
-38.48474 10.452513 -34.901356
-38.44989 11.33917 -38.84171
-38.438305 11.18972 -34.888054
-38.397797 11.908013 -38.67354
-38.629272 12.35086 -38.306866
-38.68118 11.849308 -35.42039
-38.48175 11.798099 -35.23196
-38.461105 12.772572 -37.57252
-36.907906 8.176965 -38.75196
-37.095814 7.961168 -38.18148
-37.36099 7.9659824 -37.592262
-36.7871 7.770003 -37.122223
-37.44478 8.811058 -38.903786
-37.433678 8.495672 -36.33165
-37.1601 8.882148 -35.650192
-37.24865 9.276116 -35.279064
-37.51119 9.799981 -34.969025
-37.340286 10.634008 -39.39499
-37.159157 10.400873 -34.7251
-37.013523 10.971102 -39.4167
-37.532566 11.111465 -34.802597
-37.221886 11.80081 -38.850925
-37.657078 12.075773 -35.142048
-37.244133 13.088817 -37.369102
-37.61645 12.722386 -36.972164
-36.62484 13.853261 -34.789116
-36.70676 14.319808 -36.393593
-36.82183 14.369147 -35.773857
-36.752834 14.330907 -35.114902
-36.654465 15.057288 -36.18544
-36.606277 15.20955 -35.860085
-36.117798 7.056421 -38.20582
-36.062332 7.009049 -37.335194
-36.446243 7.7544165 -38.75301
-36.59548 7.6635056 -38.427
-36.072414 8.178634 -35.880936
-36.20647 8.860974 -39.39612
-36.60846 8.949246 -35.34206
-36.697224 9.248443 -39.340378
-36.359337 9.394368 -34.99739
-36.607906 10.427859 -39.440357
-36.461117 10.567708 -34.759132
-36.610863 11.313826 -39.20941
-36.82022 11.922205 -38.66745
-36.51912 12.118115 -38.53016
-36.354362 12.062722 -34.63985
-36.16754 12.924846 -38.224037
-36.178123 13.9123125 -34.22928
-36.14883 14.638869 -37.283794
-36.445164 14.61177 -34.8175
-35.932755 14.266175 -34.041847
-35.973766 15.342943 -37.649246
-36.468727 15.543036 -36.33592
-36.508347 15.017874 -35.272644
-35.925816 15.448951 -34.68931
-35.748188 14.961182 -34.1987
-35.99211 16.318647 -36.931084
-36.097416 16.34138 -36.55392
-36.165585 16.149061 -35.897972
-35.79947 16.673416 -36.323532
-34.632767 3.7138383 -36.569458
-34.568996 3.5100672 -35.58696
-34.71796 4.63498 -37.301537
-34.817463 4.6513147 -36.70993
-34.639194 4.4443073 -35.902843
-34.512615 4.2907386 -34.77302
-34.853172 5.609758 -37.698086
-35.55783 7.0431967 -38.79112
-35.424725 6.809225 -38.460213
-35.237717 6.385732 -37.498814
-35.023952 8.067889 -39.642605
-35.57325 7.681177 -39.173588
-35.406845 7.9773593 -35.87903
-35.12971 8.718346 -39.608303
-35.372696 8.522756 -39.449203
-35.485012 8.754871 -35.282413
-34.90075 9.747211 -34.382248
-35.218555 10.249367 -34.433598
-35.280327 11.875683 -34.00693
-35.01371 12.603718 -34.072933
-35.362053 13.540295 -33.77229
-35.24859 14.510522 -38.798714
-35.362072 14.852181 -38.599922
-35.35684 14.385099 -33.736874
-35.376476 15.087133 -34.06313
-35.210747 15.921305 -38.28539
-35.46265 16.279102 -37.652294
-35.537285 16.475668 -35.405487
-35.380394 16.038496 -34.83554
-35.428856 16.728113 -37.004345
-35.51964 16.75299 -36.36475
-35.456387 16.700708 -35.738342
-33.58829 2.794509 -44.401997
-33.658222 2.8750134 -43.668636
-34.042076 2.8226347 -37.076004
-34.25414 2.8174639 -36.430374
-34.058937 2.6495197 -35.72341
-33.99478 3.0809796 -34.713665
-33.740704 3.2397656 -34.01253
-33.549778 3.406189 -44.825626
-33.6384 3.480816 -44.36473
-33.66719 3.2495344 -43.707165
-34.43884 3.239426 -36.89658
-34.484898 3.2284505 -36.00215
-34.338703 3.6698518 -34.68156
-33.937428 3.6415424 -33.928417
-33.564644 4.005977 -44.247158
-33.561626 4.214257 -43.961903
-34.265152 4.6847544 -38.15692
-34.396435 4.244848 -34.368202
-33.954506 4.3526325 -33.675568
-33.915176 5.784432 -39.02822
-34.49105 5.7227693 -38.42478
-33.873055 5.274746 -33.88063
-34.020813 6.9284286 -39.761703
-34.35715 6.3024893 -38.72577
-34.028618 6.178426 -34.987225
-33.69349 6.0516214 -34.19507
-33.762253 7.5337896 -40.27731
-34.086136 7.29011 -35.54038
-33.86349 8.212733 -40.56295
-33.849808 9.144463 -40.60277
-34.417118 9.961381 -34.229347
-34.424343 10.687865 -33.91349
-34.51291 11.138162 -39.460354
-34.322037 11.376024 -33.83203
-34.529617 13.77052 -33.647453
-33.969955 14.693468 -39.445618
-34.79124 14.488275 -33.742035
-34.350204 15.286402 -39.14361
-34.855118 15.309058 -34.017544
-34.417057 16.475153 -37.943066
-34.19803 16.257912 -34.735428
-34.222 15.794201 -34.368046
-34.877254 16.941055 -36.283127
-32.619846 0.99553895 -45.908184
-32.77089 1.0005265 -45.258663
-32.73728 0.90876186 -44.642773
-32.729404 1.5699083 -46.03389
-32.932384 1.56164 -45.48985
-33.14756 1.6758777 -44.28566
-33.370506 2.1548426 -43.426483
-33.567852 2.3845658 -37.064987
-33.159637 2.1580162 -36.247948
-33.54178 2.3470504 -35.64447
-33.195053 2.4198887 -34.990482
-32.770824 2.4426544 -46.054085
-33.235294 2.5374641 -45.20099
-33.449257 2.3649583 -44.689453
-33.470234 2.416525 -43.55443
-33.087364 2.9647613 -42.517048
-33.340992 2.5780973 -37.189564
-33.274544 2.7125738 -34.384163
-33.27949 3.0785022 -33.87065
-32.756786 3.413745 -45.947834
-33.12189 3.4229608 -45.406902
-33.504814 3.8522515 -44.67755
-33.52609 3.7033925 -43.37179
-33.51985 3.277298 -43.10434
-32.71152 3.2723882 -41.436096
-33.428688 3.5563028 -33.617756
-33.23444 3.8022013 -33.323208
-32.93184 4.189508 -45.312595
-33.512318 4.1477003 -44.383068
-33.37386 4.4528646 -43.591496
-32.67014 4.7359343 -42.20463
-33.113422 4.195722 -39.084118
-33.706062 4.6658607 -33.481827
-33.314953 4.3963623 -33.232014
-32.73926 4.735889 -44.98382
-32.96213 4.9731264 -44.318554
-32.90479 5.041961 -43.647285
-32.79539 5.0285316 -43.147476
-33.24672 5.68677 -39.218124
-33.479782 5.2726326 -33.59673
-33.041336 5.1378546 -33.175846
-33.395393 6.624556 -39.83311
-33.239532 6.285206 -39.654106
-33.490273 5.987433 -34.23223
-32.96893 8.597015 -41.59683
-33.06119 8.100418 -41.51641
-32.969303 8.497653 -34.642887
-33.01883 9.687768 -41.22718
-33.846397 9.5854645 -34.500755
-33.23592 10.611374 -40.67645
-32.71362 12.111678 -41.42227
-33.226307 12.687171 -41.018112
-33.666874 12.315575 -33.80726
-33.118904 13.421014 -41.1713
-33.91614 13.729861 -33.83766
-32.94311 14.177568 -41.082874
-33.340244 14.173034 -40.491573
-33.909206 14.129551 -33.861877
-32.9999 15.008359 -39.930943
-33.496933 15.438177 -34.553326
-33.584873 14.865948 -34.360977
-33.649097 16.127394 -34.821106
-33.182713 16.732006 -36.107674
-32.05958 0.2092088 -45.36992
-31.901093 -0.03972584 -44.726856
-31.849915 -0.13408127 -43.76453
-32.264153 0.88355744 -46.172474
-32.440067 0.5756894 -45.433994
-32.34131 0.38583574 -44.207024
-32.34421 0.59812886 -43.777122
-32.050472 1.6238409 -46.683342
-32.386066 1.3731512 -46.3718
-32.010647 1.5249745 -42.483505
-31.850866 1.8185092 -39.674164
-31.84846 2.0948277 -38.91313
-32.118202 2.2642481 -37.23314
-32.87483 2.0890229 -36.32176
-32.474205 2.1411223 -35.57522
-32.061745 2.2876348 -46.702778
-32.45104 2.1736586 -46.414825
-32.208797 2.6316078 -41.540535
-32.279713 2.3642821 -39.969685
-32.56913 2.508563 -34.232437
-32.379566 2.844862 -33.768745
-32.24064 3.221239 -33.276188
-32.309093 3.412873 -46.293274
-32.498234 3.6389139 -33.225212
-32.349823 4.144963 -45.96199
-32.57651 4.2472544 -45.627544
-32.519722 4.496421 -41.624615
-32.498962 4.6006227 -33.037292
-32.123375 4.9761267 -45.390182
-32.741585 5.053062 -44.712845
-32.630783 5.187506 -43.540802
-32.128826 5.2478075 -41.7414
-32.187675 5.3008647 -32.994076
-31.88295 6.3898506 -41.41403
-32.45857 6.631688 -33.435234
-32.529514 6.123772 -33.211807
-32.75552 8.009066 -41.631622
-32.20427 7.587213 -33.993065
-31.94323 8.488614 -34.44199
-32.649757 9.254004 -41.57978
-32.977604 9.975154 -34.507133
-31.836458 11.054673 -41.665577
-32.570103 11.987288 -41.528812
-32.611565 11.5700035 -34.507954
-32.18704 12.692162 -41.794052
-32.201324 12.24524 -41.57396
-32.400425 12.203759 -34.567284
-32.692364 12.785523 -34.166283
-32.248844 13.525647 -41.778805
-32.614132 13.747184 -41.52643
-32.31027 14.246063 -41.474556
-32.908226 14.611015 -34.619987
-32.251255 14.663963 -41.07705
-32.240685 15.007312 -40.60447
-32.016315 17.494738 -37.21112
-31.985298 18.61785 -37.14569
-31.773743 19.365747 -37.295532
-31.727186 19.034101 -36.092194
-31.098372 -0.74414825 -44.399605
-31.153543 -0.8004314 -44.030663
-30.884684 -0.61163473 -43.026558
-31.294237 0.18940467 -46.094543
-31.291018 -0.26412332 -45.45172
-31.4584 -0.44523162 -44.50888
-31.596788 -0.23590288 -43.633434
-31.113281 -0.2873363 -42.744236
-30.929235 0.100146666 -41.70476
-31.451738 0.90985084 -46.69723
-31.769503 0.6841221 -46.412987
-30.912693 0.95665854 -41.035477
-31.567554 1.4401325 -46.844856
-31.532204 1.594998 -40.03225
-31.108181 1.7664728 -38.484806
-31.270296 1.8018577 -37.90643
-31.83723 2.4473228 -34.640453
-31.565348 2.5375352 -46.83856
-31.723597 2.9512584 -33.66812
-31.394436 3.460149 -46.80065
-31.579008 3.606018 -33.275154
[...]
POINT_DATA 9261
SCALARS features_00 float 1
LOOKUP_TABLE default
0.77644384 0.7801797 0.7999335 0.8009418 0.79031324 0.8041147 0.7950692 0.595819 0.6399604 0.634978 0.6928154 0.7014886 0.69140923 0.6815743 0.67762536 0.72256416 0.7502456 0.7757094 0.7571155 0.730944 0.70994467 0.7773955 0.78085446 0.77287084 0.74151456 0.7952226 0.79066575 0.76400644 0.75339687 0.76974976 0.72776055 0.4716526 0.5002982 0.50878423 0.5399866 0.56820637 0.5206014 0.5892877 0.5852226 0.60757685 0.6048987 0.62740004 0.64827514 0.65270305 0.66651815 0.6828934 0.6839721 0.7495357 0.7104646 0.68666047 0.7157458 0.38301104 0.40739894 0.43437546 0.42270496 0.4620623 0.48297065 0.3976622 0.41199008 0.47066945 0.55988705 0.45128846 0.5040169 0.5538765 0.4804436 0.5180745 0.42630747 0.57211435 0.47088712 0.39644486 0.46039587 0.50642323 0.529975 0.55205905 0.27223343 0.2990092 0.3237865 0.3447752 0.29598758 0.32680386 0.31149286 0.4342568 0.2841406 0.47301632 0.33266804 0.41029283 0.42805517 0.38246825 0.28473586 0.23995955 0.52710825 0.4240681 0.5517369 0.5634239 0.49570662 0.55884314 0.5540712 0.6038104 0.5964122 0.5552262 0.5700613 0.5831448 0.5789872 0.49085066 0.5664638 0.30485386 0.4033967 0.4969238 0.58928335 0.094348684 0.1933009 0.17246217 0.1393816 0.137254 0.21585095 0.18117863 0.14926468 0.19790182 0.18097208 0.20957842 0.22853237 0.28329325 0.3894952 0.5144582 0.26434255 0.34376645 0.571198 0.6055465 0.45513093 0.5277001 0.6142619 0.6588098 0.5545671 0.5725335 0.59082377 0.5341693 0.5110959 0.5237925 0.56024116 0.5932579 0.6146384 0.61896014 0.54543257 0.5452775 0.5210752 0.5018298 0.55759656 0.61024964 0.6217611 0.5461006 0.5371089 0.15331472 0.60377157 0.59953463 0.046082985 0.0500928 0.5127759 0.052620117 0.052614868 0.3333702 0.4055034 0.080869265 0.02173993 0.12900603 0.15114324 0.21176153 0.2527726 0.022979513 0.3335117 0.51599354 0.2284612 0.55715567 0.25299332 0.5900444 0.4550817 0.582914 0.54808325 0.56487197 0.54410005 0.5285756 0.49620247 0.5396439 0.5385164 0.5102414 0.4681575 0.4971848 0.5071007 0.58396155 0.5900389 0.52187574 0.5381206 0.5344938 0.48800188 0.41931587 0.45342255 0.6015239 0.6106896 0.51085174 0.5341457 0.5489521 0.5095805 0.48590654 0.34825775 0.615818 0.60585487 0.5303147 0.5467965 0.5149059 0.34916583 0.0896033 0.5709574 0.57927406 0.5080744 0.50376046 0.4653232 0.41674453 0.055595595 0.5022429 0.50222343 0.0507152 0.05015741 0.40660498 0.15708575 0.15692642 -0.07767601 0.09261969 0.15989424 0.03600783 0.21459773 0.30189872 0.43511844 0.39194393 0.47852877 0.40247557 0.33352888 0.4905823 0.29343697 0.47563234 0.4757831 0.5018773 0.61737204 0.498141 0.44142306 0.36172348 0.54074013 0.52383256 0.43930617 0.4074195 0.5122267 0.53744245 0.27504703 0.0027453154 -0.052787527 0.14992313 0.4613075 0.50031555 0.48526186 0.514569 0.22084424 0.01973369 0.5667825 0.57265425 0.57173145 0.47503117 0.5820042 0.47820562 0.5036486 0.31433094 0.52797484 0.4299312 0.4873519 0.4133347 0.12980014 0.44444412 -0.17702231 0.30141523 0.37703025 0.13428469 0.11006528 -0.0054683834 0.08490607 0.118830286 -0.0017392784 0.19102377 0.28304332 0.3329665 0.25471413 0.26356176 0.35692012 0.4170503 0.4221157 0.4264642 0.38187295 0.4059996 0.37463754 0.47146854 0.60732883 0.61153984 0.6884948 0.3474486 0.32395822 0.25666445 0.47110116 0.43278313 0.3863992 0.33612657 0.25290018 0.17903405 0.49360436 0.5203092 0.07101854 0.4876563 0.0133355595 -0.1049012 -0.13084254 0.49477658 0.4366385 0.5121842 0.38056055 0.48957574 0.44009703 0.20185137 0.35270464 0.032067876 0.010132149 0.30517578 -0.104319684 0.102155104 0.18238482 2.7544796e-05 0.07131947 0.04572559 0.11654157 0.117425986 0.26479006 0.4083936 0.18103677 0.41340327 0.38830715 0.28541952 0.27960616 0.47036523 0.44057238 0.51346326 0.52193296 0.41564295 0.4935568 0.66194516 0.4795292 0.56587446 0.64756966 0.67056024 0.59045994 0.6872065 0.6032629 0.316673 0.315759 0.25806767 0.19987854 0.1849097 0.5661628 0.58824944 0.37029463 0.33587497 0.22195968 0.18341611 0.131315 0.5426583 0.54221874 0.36867994 -0.050738193 -0.018833246 0.31143188 -0.053769704 -0.03443467 0.33129287 0.3331512 0.31225222 0.25416347 0.2743553 0.2699365 0.2683728 0.0030018687 -0.08468074 0.13273838 -0.17361365 0.09318531 0.0905243 0.10308055 0.22321019 0.12511314 0.045402564 0.21411052 0.12500583 0.07160265 0.15599309 0.29838753 0.38223958 0.31324768 0.16820505 -0.014795873 0.003839817 0.29377943 0.085370995 -0.009980612 -0.0068768263 0.29928094 0.5259806 0.38608545 0.64319456 0.6857789 0.4446057 0.49149436 0.7213945 0.7150041 0.58117414 0.6751056 0.7394875 0.75736 0.6775895 0.5807071 0.59858817 0.5890776 0.26479855 0.27108598 0.2572602 0.5721188 0.60725987 0.6151217 0.59010017 0.2339456 0.27018106 0.27870107 0.24873777 0.19597465 0.17834201 0.16207089 0.088177554 0.42068645 0.6005285 0.5790449 0.12295773 0.26044297 0.13286366 0.038773287 -0.14761433 0.5624558 0.5755124 0.20436741 0.31036788 -0.11421788 0.4232378 0.44394493 0.18349631 0.15759768 -0.16666453 0.09541303 0.123246655 0.1909315 0.114397936 0.102709696 0.17569385 0.19776826 0.17124914 0.2248807 0.065238945 0.07502472 0.3340637 0.31560215 0.15502362 0.014046729 -0.031096902 0.029475987 0.53702074 0.27556354 0.05859059 0.032690838 0.57605225 0.6951821 0.35921368 0.34033918 0.37851876 0.39462465 0.1105089 0.19140968 -0.024041664 0.058645032 -0.11271626 -0.011817262 0.02089591 -0.040113512 -0.032027327 0.09371417 0.17983858 0.22563052 0.23240887 0.54833823 0.32649678 0.69251204 0.36024493 0.7284397 0.5081891 0.61666346 0.7726371 0.7574322 0.7073822 0.7773385 0.7880001 0.51611745 0.53659046 0.40938455 0.5196764 0.58830476 0.5390492 0.27528375 0.2410104 0.20570387 0.15405817 0.5492459 0.4479694 0.21866687 0.16779038 0.10082259 0.5312719 0.48821217 0.50578475 0.38155764 0.3332457 0.33488828 0.36441803 0.19475721 -0.043155715 0.29215416 -0.20176025 0.24893889 0.19657831 -0.01591792 0.15213606 0.1754593 0.29527044 0.32029864 0.34259456 0.335789 0.25280562 0.6033428 0.32424417 0.70581263 0.7092564 0.28721294 0.22369361 0.7298615 0.75143087 0.34993237 0.5310439 0.6672909 0.7556801 0.7618239 0.366284 0.39109415 0.25847262 0.59402156 0.6906686 0.3566085 0.36893773 0.28197634 0.08128038 0.34537995 -0.10465261 0.26200265 -0.16499078 -0.13296887 -0.19368255 0.0135001615 -0.071221724 0.057960458 0.015233307 0.1395098 0.17497295 0.3814475 0.2968007 0.66247207 0.3586022 0.7339157 0.412544 0.5824045 0.7682196 0.7571666 0.67405176 0.79124326 0.7836626 0.34614146 0.16500047 0.19696364 0.14732578 0.18272333 0.23815149 0.19794992 0.17674054 0.18365636 0.102887094 0.42080116 0.34552687 0.30708092 0.15781803 0.19600901 -0.07800478 0.392573 0.40308368 0.36750323 0.38679913 0.42264655 0.41584933 0.41894352 0.38218206 0.0058204755 0.35548663 0.31528166 -0.08307808 0.31020588 0.279194 -0.34320468 0.23647286 -0.055602774 0.21479389 0.3518235 0.54246104 0.27974477 0.31097692 0.59207726 0.63954717 0.23944119 0.15355733 0.70265985 0.69569683 0.033803347 0.7389983 0.7186078 0.27396542 0.00019751489 0.52086663 0.72883624 0.7338289 0.3267342 0.26661485 0.67723465 0.7118318 0.31269085 0.16371058 0.10518314 0.27774566 -0.33541572 0.20401351 -0.054102674 0.054711796 0.12904078 0.26491284 0.5625534 0.63279974 0.3440385 0.6667588 0.7023024 0.4063598 0.58573353 0.71010435 0.7344873 0.727016 0.767501 0.557546 0.5126153 0.5299096 0.4126987 0.4535382 0.4030257 0.29771465 0.21154213 0.21975043 0.22343673 0.21188103 0.2464426 -0.008737065 0.21146981 0.34261882 0.16716541 0.2427803 0.41111112 0.2040127 0.43733865 0.43027025 0.07139758 0.37188786 0.34442523 -0.4880258 -0.3833289 0.31440333 0.28160965 -0.23171717 0.12302159 0.028073724 0.24112715 0.5478347 0.61470115 0.6624316 0.67301 0.1435157 0.67859066 -0.11855176 -0.056713507 0.6571556 0.69272673 0.05368665 0.31257644 0.60481906 0.6745972 0.25260663 0.50274897 0.55736053 0.5258491 0.22201648 0.08975629 0.17304192 -0.101081334 0.13187237 -0.12422003 -0.21668592 0.008899342 0.041557804 -0.20568582 0.0017260648 0.055209465 -0.040469125 0.36636224 0.084227294 0.5146228 0.3048313 0.56041646 0.6264242 0.7062931 0.6071395 0.6048901 0.5930242 0.52574855 0.5694423 0.6039523 0.5587135 0.49889675 0.4689101 0.4976676 0.5291576 0.489738 0.40476674 0.37154645 0.48930758 0.47069544 0.4284671 0.45747498 0.44144398 0.24920657 0.35697055 0.22063112 0.3306169 0.26607227 0.27622288 0.21549389 0.11388148 0.36013544 0.2214099 0.17898771 0.1597476 0.40036464 0.38436306 0.1646882 0.41615373 0.41500658 -0.063201234 0.39247093 0.39346653 -0.32559416 -0.08317621 -0.06173303 0.12128424 0.3803704 0.008622851 0.64878815 0.66670644 0.0849755 0.6698779 -0.011171283 0.66035044 0.53660345 0.635675 -0.22470385 -0.1397184 0.1678744 0.44844764 0.5782233 -0.07797967 -0.3955598 0.39347512 0.52561116 -0.008526072 0.09732397 -0.042277873 0.22086784 0.19579795 0.070939876 -0.026261322 -0.0063620554 0.23603785 0.20738673 0.13679603 -0.065763995 -0.07298071 -0.01969321 -0.15670161 -0.08241135 -0.044197734 -0.11164138 0.021550521 -0.07772444 0.005442351 0.11598931 0.59169555 0.6407339 0.73146486 0.77258 0.7121071 0.74381495 0.77966297 0.60390884 0.6221504 0.6012389 0.5575758 0.54464006 0.5911363 0.49770093 0.42757672 0.5001387 0.51881033 0.42693806 0.37423944 0.34619242 0.5584687 0.5483663 0.46844694 0.33530438 0.30546165 0.5382985 0.5170477 0.4980722 0.27786368 0.23020223 0.3881749 0.11746217 0.18685153 0.27890784 0.025206424 0.1634759 -0.23968276 0.34772012 0.15127468 0.40802372 0.08668697 0.4389033 0.4261004 0.11742089 0.45581514 -0.0982396 -0.060836837 0.469346 0.43826014 0.37961686 0.29577258 0.090905294 -0.041563377 0.6550287 0.64575064 0.6617297 -0.13701414 -0.123561494 0.62976396 -0.08744225 0.5197034 0.64547616 0.5901832 0.38395405 0.14754207 -0.21696791 0.35880578 0.43349642 0.44530717 0.7214895 0.73234737 0.6872417 0.616152 -0.48113483 0.12875699 0.31921107 0.7260554 0.74674696 0.7738974 0.7006346 0.5376547 -0.31099066 -0.049789477 0.7301827 0.7532862 0.626516 -0.18049377 0.59969074 0.50921035 0.22887078 0.20424648 -0.16478947 0.24945611 0.2507955 -0.22871694 0.25588715 0.2436778 0.18453777 -0.15545979 -0.0754219 0.07538436 0.06334851 0.14917475 0.11289709 0.06205277 0.19259194 0.25176707 0.19793016 0.2983831 0.40423197 0.52303535 0.6419319 0.40490746 0.47488558 0.6462885 0.802291 0.6042273 0.6872098 0.7713217 0.80617416 0.7529381 0.78739524 0.7998283 0.5942831 0.6045749 0.6065853 0.50651956 0.5392815 0.46460116 0.40071464 0.35875988 0.4923617 0.50722337 0.35479465 0.6594533 0.65167356 0.6154522 0.56741035 0.29911703 0.5755921 0.61238366 0.56034327 0.31125897 0.16523388 0.21741353 0.37910694 -0.07221113 0.09558967 0.041486803 0.08437978 -0.21087496 0.1525625 0.29190516 0.12722717 0.13945343 0.37926602 0.15037888 0.45124304 0.49337155 0.13213691 0.4848079 -0.009304464 0.49388683 -0.15760925 0.6157551 0.0043308437 0.5783788 0.46595362 0.32819983 0.1622689 0.4305171 0.62298286 0.12707587 0.68542516 0.6964449 -0.19521168 -0.45779878 -0.12574267 -0.03788624 0.68423855 -0.26218656 -0.06520783 0.68058443 0.6680828 -0.28377628 0.60542244 0.5319384 0.41366583 0.30229667 0.15604241 -0.2902617 0.4435199 0.40500832 0.31089094 0.13263127 0.19511351 0.12845704 0.15561056 0.21503836 0.17106545 0.20326628 0.49633682 0.28648305 0.6243348 0.40518367 0.739671 0.5109069 0.60569906 0.7150874 0.8054838 0.8019177 0.74116516 0.78065294 0.7962036 0.53241813 0.5253994 0.50933 0.46196622 0.36363983 0.36878848 0.47131822 0.3303593 0.7151805 0.7173598 0.6732999 0.33703247 0.6431659 0.45901448 0.3065053 0.5337551 0.37958333 0.2388531 0.09000234 0.19631462 0.14627686 0.4384761 0.03851919 0.14501931 0.3638718 0.017865386 -0.04612842 -0.09507845 -0.03002301 -0.03846802 0.11016916 -0.47868145 -0.3544935 -0.22787613 0.105566666 0.3786205 0.08152065 0.51346767 0.48050928 0.049322285 0.5175622 0.51606643 0.010719486 0.5237739 0.5256816 0.016808674 0.5247586 0.5062262 -0.12042942 -0.118180394 0.13673747 0.18087672 0.49716812 0.4446635 0.26334354 0.5853428 0.6024596 0.53387797 -0.46554008 -0.35473388 0.1959551 0.1900678 0.5276547 -0.45410496 0.5755824 0.5948137 -0.4146722 -0.300501 0.53072274 0.41717446 0.37622577 0.31988448 0.2291193 -0.30825558 0.19415003 0.14637473 0.027306838 0.061062425 -0.27135426 -0.3131221 0.019965136 0.030680975 0.43904704 -0.054720975 -0.047563527 -0.039691176 -0.028063774 0.07423714 0.19497305 0.46890718 0.54793864 0.58063936 0.32868588 0.4021296 0.678141 0.5084583 0.561433 0.6866543 0.73106277 0.7147325 0.5591007 0.6482831 0.6949487 0.736375 0.3655447 0.37283844 0.20635676 0.3834251 0.359554 0.24344169 0.3245162 0.7206509 0.6655685 0.61250424 0.09021435 0.64217687 0.7158885 0.5015987 0.40434992 -0.05034864 0.5441463 0.5604553 0.29059982 0.06983836 0.11386547 0.49318147 0.1960282 -0.021390922 0.07531905 -0.23155992 -0.30816105 0.025663562 -0.4565607 -0.01964936 -0.22599491 0.045781374 0.022462599 0.51557946 0.47287622 0.5143211 0.3695176 -0.07655591 -0.123390585 -0.10097475 0.026058123 -0.24259001 0.11293652 0.34840783 0.24844554 0.43951565 0.28034768 0.30105552 0.46328437 0.21740857 0.28699994 0.3047402 0.5203044 0.3813173 -0.17927459 0.023317572 0.15057877 0.41044727 0.011628449 0.078412324 0.408117 0.056316994 0.10277209 0.27843532 0.19165131 0.06027074 0.10967447 0.11125931 0.07692818 0.2554773 0.28173345 0.08646655 0.057338286 0.47442758 0.50944173 0.057118822 0.5762163 0.58669895 0.6487907 -0.025014043 -0.043310765 -0.1676956 0.6244395 0.6369131 0.040093824 -0.036433764 0.15467031 0.17827874 0.3869054 0.1262587 0.48714375 0.15455598 0.22772019 0.5639875 0.58688486 0.36622718 0.52065635 0.5716635 0.62584496 0.5774345 0.5941458 0.20576583 0.22380774 0.31653365 0.15277916 0.15198112 0.3142808 0.5918411 0.2509743 0.49166322 0.58577234 0.5076113 0.42933527 0.06285783 0.56667984 0.3944468 0.3440516 -0.15207773 0.494674 0.3136734 -0.15721953 -0.45483977 0.028149366 0.43071082 0.19930586 0.025572453 -0.43892193 0.04339654 0.14823374 0.14847168 -0.06472079 0.08082379 0.15076357 -0.20382288 -0.06666258 0.11296147 0.03630198 -0.016671775 0.041221574 -0.04202476 0.008566663 -0.15658122 0.67839676 0.6226435 0.51023555 0.041158743 -0.051722072 0.6248389 0.5152563 0.46523988 -0.06264908 0.28124017 0.0551723 0.3183217 -0.0116128065 0.32523096 0.07598594 0.34553653 0.31413957 0.21762145 0.03611505 0.07181774 0.031168908 0.15114175 0.14830098 0.05408825 0.047296107 0.06659762 0.06317023 0.27655154 0.04405129 0.06607037 0.09628156 0.59234977 0.67469764 0.102417186 0.016423717 -0.07160254 -0.09742967 0.67862594 0.7430064 -0.10731668 -0.026356418 -0.2395305 0.6944781 0.7111944 0.71995574 -0.01299597 0.7884101 0.7861235 0.0013196468 0.027951015 0.26992044 0.040291905 0.07807917 0.340556 0.06946681 0.08621279 0.4567102 0.39856207 0.23511915 0.49366236 0.51212066 0.5221005 0.51391053 0.5512807 0.20939383 0.33657464 0.22194968 0.14424005 0.42637664 0.5974118 0.63106906 0.45688325 0.38583043 0.58742255 0.63051236 0.3219419 0.57551134 0.6126093 0.5071744 0.40113863 0.44533467 0.51977885 0.58147305 0.6345994 0.3387542 -0.09622604 0.3551404 -0.08293746 -0.16857634 0.3296308 0.22293368 0.030323017 -0.077610984 -0.03320129 0.17627722 0.07297222 0.18171218 0.13714793 -0.019251674 0.030148558 0.047507834 0.13395149 0.096693695 0.05028844 0.08570589 0.055765547 -0.0057057887 -0.012136307 0.02744399 0.7180031 0.68070567 0.5225388 -0.028993469 0.0585439 0.63788205 0.6991638 0.47686085 0.23759168 -0.14712663 0.5392982 0.32933515 0.40611708 0.38145626 0.5073929 0.4168371 0.4994874 0.2728249 0.50554097 -0.014186656 0.4276274 0.4349656 0.25863445 0.00027173758 0.35530075 0.5175338 0.48144394 0.37296718 -0.021663696 0.5166673 0.4247946 0.3263603 0.060099408 0.21887416 0.41893646 0.14213562 0.063875064 0.025914721 0.037585977 0.5591844 0.009935789 0.029926647 0.05093161 0.66462797 0.03916507 0.04092277 0.75283223 -0.06443414 0.32975206 0.8091751 0.80358446 0.37027428 0.022457294 -0.063018106 -0.2072586 -0.080233335 0.82286215 0.83823115 0.4159783 0.3952924 -0.049468186 0.42552143 0.39120817 0.3045133 0.037019666 0.13887545 0.14566365 0.093948334 0.34228966 0.35707274 0.11977693 0.12964703 0.14640966 0.11850847 0.6663734 0.6633564 0.6674193 0.6603362 0.69858205 0.68546194 0.5409219 0.60079 0.61143124 0.64793146 0.44126028 0.42352104 0.45172334 0.5235039 0.41870493 0.6194929 0.6487838 0.54502785 0.5157894 0.30277604 0.14257304 0.15440273 0.6256461 0.66195285 0.66977406 0.53159076 0.65911925 0.44790596 0.6535364 0.31261742 0.6026608 0.42138353 0.15648296 0.049854606 0.47138715 0.44481397 0.09783444 -0.031866997 0.3845056 0.43433192 0.43345952 0.025234569 -0.09310467 0.05242002 0.40246955 0.07341912 0.006414205 0.12590301 0.31029347 0.079506814 0.12102875 0.17656627 0.13754785 0.1228859 0.0848033 -0.024147779 0.053416517 0.023272559 0.60399675 0.67359346 0.6732993 0.5939163 -0.10856461 0.5970752 0.44343835 0.5030061 0.577352 0.2965643 0.59620917 0.17396677 0.59423625 0.22763085 0.5279118 0.467902 0.42320916 0.37094206 0.44969767 0.5163801 0.5290972 0.28434962 0.32544386 0.5312545 0.51392686 0.2303687 0.44560823 0.21241315 0.16826728 0.1365608 0.04412467 0.04638867 0.2316637 0.14070831 0.03287701 0.43570018 -0.00395751 -0.01900759 0.6122898 -0.1253812 0.75500214 0.2069209 0.2705661 -0.14456461 -0.05153203 0.27130982 0.62944245 0.82738274 0.80837554 0.3223281 0.37475324 -0.29774433 -0.18399677 0.63781005 0.8267833 0.844542 0.39674085 0.4263869 0.4084714 0.44280916 0.38985488 0.2306706 -0.06250341 -0.0078286575 -0.42417368 0.026941024 0.16409825 0.06908196 0.13035929 0.124669716 0.5531042 0.5565529 0.6394186 0.48777628 0.64101934 0.7226881 0.34269202 0.6250073 0.7036811 0.7450563 0.7544532 0.41328973 0.38648698 0.47632432 0.61134666 0.71614254 0.75016695 0.76191616 0.30292162 0.26632628 0.26818812 0.22587502 0.5364522 0.4923067 0.16240242 0.16169375 0.16820484 0.59604096 0.5744226 0.6231901 0.63427514 0.7003176 0.62592375 0.5688064 0.40565327 0.658914 0.68844277 0.65459764 0.56314975 0.50139683 0.61181104 0.5736789 0.54251385 0.19539902 0.25395522 0.40239704 0.5142547 0.6354717 0.66533124 0.6521911 0.6344981 0.6060118 0.4566064 0.1749162 0.67389464 0.68059945 0.61423886 0.6842667 0.5754006 0.70111835 0.6407219 0.6303066 0.57010436 0.6420752 0.41501886 0.33576247 0.26781762 0.1383433 0.64344954 0.56380296 0.5266901 0.4544446 -0.106023766 0.55200285 0.43856058 0.44261798 0.11621787 0.06128007 0.56362134 0.50990665 0.4594342 -0.11035807 0.26213932 0.43136892 0.43334538 0.19058046 -0.06072332 -0.014870387 0.15230861 0.41404748 -0.3594736 0.054114684 0.34618926 -0.036562104 0.052987527 0.1002413 0.084929176 -0.11040211 0.23832223 0.50333077 0.391097 0.4181567 0.48212156 0.55146265 0.34433421 0.37059826 0.6160189 0.26930314 0.63784575 0.16055706 0.18679994 0.61282086 0.2166388 0.17399852 0.52709717 0.36512196 0.3859752 0.45757425 0.5092403 0.30137652 0.51341414 0.20840701 0.23149785 0.44148666 0.15462913 0.15360649 0.1497805 0.0945082 0.20612216 0.25078067 0.17689024 0.3724856 0.41469088 0.32552975 0.2531803 0.1750526 0.53193104 0.5673004 0.27501622 0.15923986 -0.005767963 0.61297965 0.6642201 0.6371102 -0.09975762 -0.1238452 0.0737016 -0.05432342 -0.08621511 0.6006035 0.704684 0.7665705 0.003001023 -0.28474283 0.77992356 0.2038204 0.27673468 -0.34474927 0.33868867 0.41082087 0.048528094 -0.32771575 0.5779039 0.70665264 0.44124943 0.36159444 0.19985607 -0.24422798 0.6381397 0.7651441 0.76057327 0.7508222 0.7306644 0.46179515 0.4540574 -0.06792828 0.22252889 0.677727 0.7304436 0.7696965 0.7769801 0.7722542 0.44654548 0.43534136 0.30002502 0.32860294 0.6530397 0.7397162 0.7168391 0.6636548 0.42644966 0.47370264 0.26180804 0.17489076 0.06835229 0.016458765 0.4802425 0.5064297 0.47117436 0.27084967 0.46758986 0.47819763 0.44563 0.34756032 0.4322428 0.418903 0.338964 0.46249646 0.46001524 0.35996333 0.4524304 0.39712328 0.3481833 0.4666266 0.55945206 0.5500389 0.55419034 0.63818455 0.65957665 0.21561839 0.29100108 0.6617154 0.6875093 0.72435963 0.07628572 0.2557254 0.24506496 0.53094786 0.75428814 0.7529293 0.055180825 -0.038888052 0.09396215 0.49043202 0.6301329 0.7662445 0.76246375 0.18666202 0.12257494 0.66786194 0.7380415 0.7552907 0.5299873