# vtk DataFile Version 2.0
Really cool data
ASCII
DATASET POLYDATA
POINTS 9356 float
-60.700546 1.7427719 -60.40804
-60.659172 1.5757159 -59.67392
-60.591293 2.2724 -60.99507
-60.750706 2.4607875 -60.228935
-60.831715 2.5401506 -59.635612
-60.779198 2.6037762 -58.585697
-60.600487 2.7061176 -58.056694
-60.735725 3.209945 -59.91163
-60.77126 3.235224 -59.600582
-60.789574 3.4429543 -58.726803
-60.67615 3.4356468 -58.086594
-60.667625 3.968894 -59.055557
-60.6095 3.9214919 -58.3676
-59.85491 0.17776859 -60.128323
-59.93176 0.14466704 -59.432384
-59.886116 0.27831718 -59.08066
-60.08897 1.02329 -61.183125
-60.219666 0.7677293 -60.424957
-60.32646 0.78959 -59.44791
-60.078056 0.5115093 -59.004707
-60.0134 1.754391 -61.795242
-60.26486 1.5772737 -61.465626
-60.53466 1.2466605 -59.297462
-60.27965 1.9361635 -58.228832
-59.990368 2.3941662 -61.786133
-60.320263 2.3541179 -61.475914
-60.24938 2.5364563 -57.78326
-59.722023 3.0273573 -56.94955
-60.19884 3.029387 -61.10079
-60.517788 3.0959396 -60.565895
-60.300804 3.5156837 -57.490417
-60.009785 4.0266166 -54.432655
-59.79699 3.9171157 -53.57709
-59.720016 4.13773 -53.107075
-59.947975 4.3049707 -60.102467
-60.3681 4.268578 -59.27832
-60.01811 4.4202127 -57.610626
-60.272167 4.570113 -55.132305
-60.304237 4.6635237 -54.754288
-60.14393 4.648826 -53.659225
-59.856625 4.5974684 -53.130245
-59.695374 5.0502825 -59.138954
-59.836205 4.751566 -58.254738
-59.756905 5.1799717 -57.565605
-59.81368 5.0145764 -56.951477
-60.213005 5.39948 -55.02361
-60.354073 5.3507986 -54.537838
-60.162685 5.4336624 -53.698483
-59.841137 5.438535 -53.069088
-59.88247 6.090333 -53.604816
-59.733696 6.0122495 -53.224045
-59.741123 0.36530626 -60.823055
-59.52196 0.08486691 -60.33966
-59.38622 -0.17814288 -59.35977
-59.50579 0.2070135 -58.746567
-59.56332 1.1858028 -61.79223
-59.526276 0.7994093 -61.401333
-58.80007 0.7935958 -57.572582
-59.499313 1.6069424 -62.0354
-59.276924 1.4363086 -57.291683
-59.207283 2.0403097 -56.497757
-59.535114 2.3433106 -62.057068
-58.817024 2.952918 -54.184494
-59.334522 3.3888268 -53.685616
-59.49128 2.7548046 -61.966812
-59.584263 3.486291 -54.403564
-59.460598 3.6562705 -53.64213
-59.385784 3.8542488 -53.077625
-58.942387 4.5169897 -60.73722
-59.432 4.4778547 -60.397434
-59.32693 4.6392417 -52.693474
-58.900757 4.74624 -52.469494
-59.402367 5.2779613 -60.0492
-59.39901 5.457934 -58.709366
-59.32528 5.5104294 -52.681484
-59.03283 5.232632 -52.43945
-58.895477 6.9718847 -60.839024
-59.136852 6.561068 -60.391445
-59.43253 6.3821497 -53.252296
-59.249386 6.090867 -52.860348
-58.90639 7.683601 -60.900158
-59.100048 7.751273 -60.36878
-59.292652 7.1132817 -59.49092
-59.275917 7.0386953 -58.362026
-59.164814 7.3077416 -57.24872
-59.134895 7.594774 -56.312748
-59.37423 6.871943 -54.628227
-59.08832 6.809794 -53.676907
-58.730534 8.048792 -60.986526
-58.829865 8.296989 -60.454994
-58.95761 8.159379 -59.515896
-58.893284 8.185496 -58.319736
-58.92442 8.311087 -57.18903
-58.72795 8.688276 -56.45488
-58.85474 8.465734 -55.922127
-57.755325 -4.9352126 -56.04139
-57.8227 -5.0699344 -55.478073
-57.79899 -4.888042 -54.63822
-57.91051 -4.4885855 -56.198654
-58.084972 -4.582078 -55.49577
-58.02254 -4.4135404 -54.543137
-57.757263 -4.3974996 -53.75007
-57.85929 -2.9694524 -57.095676
-58.276047 -3.355122 -55.284027
-58.206905 -3.53494 -54.794888
-57.889008 -3.5428321 -53.70698
-57.677242 -3.0703812 -53.21324
-58.044884 -2.8218558 -56.422626
-58.174473 -2.4289527 -55.449627
-58.126514 -2.797401 -54.634018
-57.78769 -2.904992 -53.53667
-58.118065 -1.9068463 -54.99836
-58.104137 -0.20865065 -59.230366
-58.32334 0.1408216 -58.398247
-57.592937 -0.4113348 -56.620617
-58.6463 0.5240766 -61.0688
-58.31619 0.55143785 -57.37197
-58.27005 0.86611235 -56.89163
-57.716732 0.63951296 -55.360764
-58.400776 1.7794799 -62.031048
-58.490402 1.5243438 -56.360275
-58.597466 1.9362316 -55.60363
-57.87554 2.233509 -54.700615
-58.710114 3.028077 -53.992138
-58.82732 3.0356357 -61.843548
-58.25954 3.2895904 -61.24982
-58.581814 3.5407267 -53.003983
-58.641212 4.4971113 -52.52674
-58.432144 5.4818583 -60.867386
-58.532055 5.7893705 -52.497437
-58.6042 5.373839 -52.427933
-58.17581 6.4154005 -61.306446
-58.618824 6.2263064 -52.722176
-58.105324 7.2199287 -61.645145
-58.37303 7.693331 -61.448906
-58.57223 7.167105 -54.283016
-58.776558 6.708662 -53.29326
-58.329838 8.448306 -61.052715
-58.59471 8.482344 -60.728764
-58.181885 8.643467 -60.91686
-58.31062 8.852235 -60.297844
-58.452805 8.996468 -59.444798
-58.41669 9.222759 -58.05289
-58.07311 9.949483 -54.668076
-58.376717 10.311347 -56.195774
-58.364777 10.472614 -55.52076
-58.08709 10.44061 -54.717434
-57.749695 10.601545 -54.37608
-57.67251 11.161812 -57.275467
-57.836403 11.4373 -56.42956
-57.993614 11.3042555 -55.27581
-57.83947 11.275739 -54.833218
-57.63026 12.614018 -56.413208
-57.650764 12.588597 -55.643284
-57.17012 -5.586345 -55.56274
-57.01147 -5.615434 -55.021503
-57.435486 -5.2128596 -56.093678
-57.457165 -5.4227176 -55.417885
-57.43675 -5.3424473 -54.71398
-57.195076 -4.9595056 -53.562943
-57.087112 -4.8218513 -53.117565
-57.282936 -4.243349 -56.893127
-57.492085 -4.680072 -53.469994
-57.121933 -4.3744636 -52.870956
-57.490612 -3.2070732 -57.29541
-57.187313 -3.5044992 -52.707283
-57.552727 -2.1910536 -53.34492
-57.113716 -2.5066254 -52.780834
-56.753334 -0.86703193 -62.84311
-56.896896 -1.001433 -62.36384
-56.77184 -1.2318624 -61.528507
-56.827778 -1.3249631 -60.61499
-56.633698 -1.3177214 -59.725933
-57.365482 -1.7439258 -53.36715
-56.974827 -1.6639942 -52.849277
-57.029373 -0.3693235 -62.857227
-57.117798 -0.517571 -62.55836
-57.91719 -0.062751174 -58.97465
-56.880665 -0.9870036 -53.31124
-56.954605 0.2306638 -63.042744
-57.62472 0.79578125 -61.946445
-57.40015 1.4881403 -54.741116
-56.89971 2.9578793 -61.938152
-57.68783 3.1974607 -53.634315
-57.41862 3.3163724 -61.27772
-56.80928 4.6650534 -62.942493
-57.001957 4.7680197 -62.219364
-57.743996 4.706721 -52.736706
-56.835236 5.523468 -62.50701
-57.834625 5.447671 -52.589394
-56.76803 6.5918617 -62.619553
-58.01191 6.2215605 -52.778816
-56.64886 7.2127476 -62.46389
-57.78128 7.2441654 -53.963978
-56.804432 7.833888 -62.159794
-57.220886 8.8022175 -60.941875
-57.446514 9.256867 -60.2049
-57.223835 9.752773 -54.166107
-57.08616 10.2425785 -59.0581
-57.47128 10.00175 -58.321346
-57.27344 10.597356 -54.137646
-57.085022 11.252096 -54.216152
-56.748837 12.521601 -58.729862
-56.67412 12.330064 -58.63533
-57.410538 12.738814 -57.486816
-57.474663 12.567664 -55.26521
-57.161716 12.469754 -54.84925
-56.814198 13.184448 -58.80725
-57.001457 13.620876 -58.31216
-57.254524 13.358725 -57.475803
-57.40525 13.295383 -56.434616
-57.255928 13.317647 -55.641556
-56.97857 13.286864 -55.08651
-56.808956 13.981299 -58.408535
-56.86604 14.091813 -57.45994
-57.08474 13.785043 -56.779263
-56.902397 13.808621 -55.80373
-56.77276 -5.6666408 -55.173523
-56.515198 -5.3167915 -56.429546
-56.513485 -5.410454 -53.8223
-56.450573 -4.8943987 -52.906017
-56.640816 -4.3480744 -52.603703
-56.23267 -3.9740708 -52.343548
-56.546604 -3.2191463 -57.701096
-56.381874 -3.4426208 -52.377556
-55.846195 -1.8992327 -62.300537
-56.07385 -2.0123134 -61.55732
-56.17488 -1.789131 -59.636772
-56.3821 -2.6417346 -57.956688
-56.14225 -2.5209684 -52.294476
-56.328625 -0.99063194 -63.102592
-56.470066 -1.3253415 -62.562313
-56.56747 -1.6561334 -61.344654
-56.417084 -1.5491202 -52.563927
-56.275356 -1.8765033 -52.359474
-56.03335 -0.3384403 -63.62877
-56.286648 -0.3101856 -63.43106
-56.396084 -0.5908707 -53.387753
-56.340126 -1.1098706 -52.744987
-56.473198 0.32661986 -63.3444
-56.2397 0.29206344 -53.693268
-56.12693 1.209484 -54.229298
-56.199997 4.08038 -63.612564
-56.02079 4.5066586 -64.00901
-56.27881 4.6052794 -63.709454
-56.71905 4.320428 -53.26502
-55.97764 5.1977487 -64.067696
-56.555897 5.618046 -53.113537
-55.90177 6.1994543 -63.802116
-56.46007 6.6723795 -62.950104
-56.122574 7.4378214 -63.15182
-55.889576 7.853099 -62.99666
-56.427753 10.73304 -53.85286
-56.2511 11.40748 -58.935547
-56.41101 11.379975 -53.887466
-56.342514 12.891096 -59.111313
-56.10418 12.282237 -54.06192
-56.36563 13.388949 -59.14505
-56.35601 13.363943 -54.760796
-56.45423 12.803457 -54.3771
-56.253304 14.067712 -58.963352
-56.481495 14.299025 -58.440006
-56.476982 14.366882 -57.675568
-56.31151 14.275096 -56.467155
-56.305717 14.058518 -55.58587
-56.173553 13.841185 -55.076927
-56.055347 14.568402 -57.525673
-55.581238 22.71153 -62.058678
-55.545433 22.764145 -61.541245
-55.58738 23.95089 -64.818985
-55.654823 23.824966 -64.44235
-55.684887 23.847485 -63.646786
-55.60987 23.723757 -62.831173
-55.623592 23.421951 -61.95645
-55.631626 24.094501 -64.852684
-55.675556 24.341267 -64.49524
-55.655987 24.610283 -63.649776
-55.580757 24.956507 -64.24994
-55.639233 24.922508 -63.870243
-55.031277 -7.0870037 -56.01884
-55.060925 -7.2111 -55.43117
-54.88537 -7.243415 -54.75535
-54.948517 -6.8200364 -54.242325
-54.993908 -6.3822336 -56.492413
-55.52232 -6.3776693 -55.524334
-55.27433 -6.3114862 -54.39866
-54.89941 -5.8876657 -53.386326
-55.02416 -5.433815 -57.309193
-55.300316 -5.212602 -53.069206
-55.52982 -4.4937596 -52.76743
-55.397648 -2.5680313 -61.353733
-55.22723 -2.6797726 -60.832985
-54.951843 -2.6502988 -59.09623
-55.4953 -3.6309593 -57.494377
-55.57677 -3.8714113 -52.598755
-55.877655 -3.4815552 -52.35762
-55.361404 -2.1467326 -62.21475
-55.596443 -2.487789 -61.216625
-55.61932 -2.460441 -60.579063
-55.099594 -2.4041708 -59.2788
-55.650837 -2.3017933 -52.30821
-55.160393 -0.9340274 -63.711826
-55.389957 -1.2460995 -63.3233
-55.59099 -1.8947868 -52.25361
-55.327522 -0.40576786 -63.785027
-55.257328 -0.7737279 -52.924995
-55.2933 0.4125566 -63.79044
-55.90818 -0.08770409 -53.66285
-55.70323 1.7511522 -62.879097
-55.42676 1.2214317 -53.876423
-55.2332 3.1354585 -63.61682
-55.28355 3.580146 -63.915367
-55.99213 3.8847203 -53.78733
-55.4888 4.6449795 -64.30894
-55.527218 5.3000426 -64.248344
-54.895752 5.940108 -52.427208
-55.2982 6.703842 -63.792965
[...]
POINT_DATA 9356
SCALARS features_00 float 1
LOOKUP_TABLE default
0.6661208 0.61639535 0.66304666 0.59738135 0.5537204 0.49910653 0.45661607 0.50798255 0.49758226 0.45227736 0.42626852 0.41508913 0.39839265 0.60397124 0.5635193 0.5269381 0.6796477 0.65678144 0.5925526 0.5286691 0.6789662 0.69372237 0.5866235 0.47431332 0.662585 0.6740949 0.4267677 0.3311615 0.57718575 0.5407541 0.38061517 0.60788757 0.64882016 0.6949862 0.38794112 0.38823828 0.304199 0.53488994 0.63178545 0.7120616 0.7238916 0.27965426 0.287342 0.18324885 0.15465145 0.54523146 0.67851734 0.7299268 0.7166322 0.68138504 0.68284035 0.6324742 0.58478045 0.49864185 0.4612757 0.61973435 0.61091745 0.2510045 0.6185039 0.2791724 0.19609699 0.61574316 0.37702972 0.55312985 0.5883634 0.49382722 0.5997986 0.65641713 0.2503451 0.3270385 0.72298026 0.70246816 0.21749178 0.2005204 0.69581187 0.6953089 0.35419035 0.28909108 0.644696 0.66320133 0.40882206 0.40778098 0.28774172 0.14263636 0.105003715 0.08783287 0.51085305 0.5846822 0.4192285 0.42313102 0.37192857 0.22700532 0.13828385 0.12185399 0.10212663 0.5249933 0.53031075 0.5652423 0.5694334 0.57274896 0.59900665 0.625155 0.55086267 0.57686126 0.58524704 0.6188997 0.61931694 0.57432246 0.5041207 0.5436052 0.59266496 0.4438506 0.35571903 0.36665386 -0.08013782 0.4961812 0.1417194 0.069895215 -0.059040718 0.43355197 0.08688268 0.0070239343 0.036257647 0.40898454 0.44335905 0.28730872 0.6012906 0.6900399 0.09043655 0.64822376 0.6652703 0.22356752 0.63084435 0.33451873 0.3862831 0.49837226 0.59590375 0.41531956 0.4265386 0.4089937 0.40462202 0.35830483 0.2163566 0.40266618 0.3360567 0.40091336 0.4136388 0.40968558 0.2772411 0.41890544 0.44690412 0.4370948 0.50749576 0.516682 0.45521235 0.45279887 0.4746936 0.49127603 0.5115663 0.5768912 0.59832436 0.49351537 0.62025964 0.636801 0.5055558 0.6494168 0.5544499 0.58465445 0.4884959 0.44696924 0.40286583 0.2938265 0.14564458 0.5111793 0.5119886 0.44447035 0.4197327 0.33684796 0.41942024 0.41501477 0.29193497 -0.03775628 0.018520262 0.4412253 0.093395755 0.32754192 0.15450332 0.59359485 0.3183788 0.5943711 0.35780728 0.58761036 0.38329548 0.4692193 0.35993558 0.35725647 0.33568946 0.34928438 0.17563969 0.20485517 0.39320898 0.40608603 0.5985756 0.5590936 0.56320477 0.5181141 0.505133 0.7099489 0.7502906 0.6572017 0.59472096 0.5925173 0.58136463 0.7923962 0.7284394 0.6656742 0.6396995 0.42974627 0.3745365 0.4784599 0.520344 0.5707736 0.52079743 0.24864501 0.5676779 0.46267748 0.39148873 0.18209706 0.036385924 0.54673713 0.5288159 0.49044335 0.39029557 0.48574924 0.51298964 0.52859926 0.5192703 0.35479397 0.43859136 0.47296506 0.1498016 0.013487086 0.4882152 0.5722743 0.50059116 0.41934443 0.5707027 0.31682366 0.54722357 0.43351886 0.5033975 0.5340645 0.34770548 0.38909373 0.3696821 0.6769614 0.42689446 0.7537626 0.5628698 0.5050529 0.84163964 0.81955993 0.7577348 0.67601454 0.63902545 0.59774786 0.741305 0.43323928 0.44092607 0.692783 0.64830244 0.5759778 0.5001416 0.4626853 0.6985216 0.67560583 0.6098294 0.6864092 0.64619905 0.5731181 0.6243813 0.63855994 0.5633109 0.43231863 0.47044063 0.48961294 0.40668613 0.22730944 0.37833428 0.41298807 0.34439343 0.28297517 0.040687755 0.06254626 0.44173947 0.5045543 0.44683078 0.33665085 0.26976442 0.11928582 0.496388 0.5258548 0.55900574 0.47968388 0.5122858 0.344221 0.46328282 0.22678669 0.28782782 -0.012861952 0.4449646 0.5633137 0.05803056 0.65262437 0.6408681 0.25433365 0.57109463 0.14907096 0.56194794 0.5482179 0.16960381 0.57692 0.63375795 0.09884213 0.24103716 0.4645062 0.31500965 0.25271538 0.6457114 0.3985657 0.54122293 0.48567086 0.88878256 0.84068155 0.65191746 0.6240291 0.5693802 0.7442007 0.6797755 0.41104427 0.4020759 0.39216757 0.36916202 0.36289406 0.36842188 0.3915132 0.39180398 0.63105977 0.4413073 0.4061082 0.4255563 0.42673665 0.7161062 0.6595578 0.45980555 0.43467417 0.7790548 0.74187785 0.7196408 0.5133507 0.46729055 0.3974967 0.7668725 0.7207161 0.676055 0.54159975 0.46113572 0.8035412 0.75946414 0.67469716 0.63721997 0.6921283 0.6906687 0.46648932 0.6171246 0.65814644 0.59884566 0.32310632 0.46959257 0.4247286 0.20300294 0.27413976 0.36094627 0.015328714 0.31991643 0.014877081 0.3863886 0.4529357 0.48493344 0.38177997 0.4722317 0.3643269 0.37400472 -0.084719926 0.45404565 0.22296484 0.5678108 -0.09332432 0.09210096 0.6534213 0.23879048 0.26492572 0.6523496 0.3298278 0.346872 0.5828288 0.27496022 0.30837768 0.5809328 0.24846523 0.61010534 0.66438806 0.5763211 0.45914143 0.084078945 0.05016151 0.5082361 0.14447483 0.1962288 0.62798846 0.33610797 0.7701778 0.6112847 0.5074628 0.44849953 0.7392403 0.66499674 0.62329555 0.56556237 0.54923123 0.49214482 0.45670563 0.50036323 0.4438572 0.43979812 0.4237323 0.5071047 0.46425074 0.4060843 0.357862 0.33504087 0.3120842 0.35255355 0.6640086 0.3485843 0.73182774 0.7248081 0.35540867 0.31731564 0.79857147 0.81926703 0.8278116 0.3950318 0.7996987 0.75670534 0.64054465 0.47504687 0.39113152 0.6352214 0.6942753 0.68835497 0.29449004 0.42410222 0.5899496 0.18096691 0.31905198 0.4764743 0.16140385 0.37315494 -0.036820598 0.06365028 0.43118405 0.34022903 0.22489434 0.5264805 0.4843875 -0.05515071 0.44700357 0.5027451 0.02989091 0.42935342 0.4181984 0.39172518 0.23140015 0.20417352 -0.15336657 -0.21571189 0.5414748 0.49928963 0.07787148 0.14989802 0.5927622 0.22902219 0.35548833 0.5799891 0.55622596 0.38758782 0.44819295 0.56859046 0.56634986 0.37319165 0.600898 0.3428685 0.13802984 9.566918e-05 0.33623266 0.6203832 0.6155943 0.16167073 0.1974687 0.036706273 0.6127615 0.63631403 0.46102685 -0.024731271 0.6099261 0.49099326 0.022752855 0.58192146 0.4570344 0.37742987 0.46317405 0.46882895 0.5913509 0.5813412 0.57574713 0.5569666 0.55084 0.5258985 0.4206611 0.54851115 0.53663075 0.44041914 0.4378047 0.4133435 0.48179424 0.41102684 0.45057416 0.45609033 0.23984064 0.39713967 0.44602352 0.45557103 0.5295116 0.4053697 0.40547335 0.63026714 0.12512179 0.24523279 0.26741076 0.7154547 0.09391232 0.73214805 0.73164517 0.05505883 0.069665104 0.70228934 0.6879746 0.5353418 0.39312088 0.25470608 0.6726227 0.4102921 0.4436594 0.61693794 0.58641917 0.16574726 0.47934848 0.0016208747 0.43223548 0.2455231 0.28174782 0.4516996 0.32519254 0.030334523 -0.111097544 -0.008429743 0.54666924 0.049163684 0.50306034 0.53781265 0.47368488 0.48372632 0.13578458 0.41224748 0.12591596 0.21013926 0.08335453 -0.059209816 0.46386498 0.26156384 0.22308525 0.026095144 0.20440611 0.5255616 0.43544078 0.37950715 0.34884945 0.5516902 0.50249577 -0.050745882 0.48487613 0.54489166 0.55239606 0.41391098 0.1238291 0.47983485 0.6257152 0.538609 0.4270068 0.4681546 0.5928391 0.34166467 0.3229234 0.1789931 0.60980695 -0.0036189482 0.61768615 -0.023912046 0.62168944 0.6168195 0.56822973 0.48047003 0.30735865 -0.036736473 0.1889623 0.5961123 0.541607 0.4844572 0.41050065 0.5773951 0.59937984 0.380305 0.4579533 0.51596487 0.33476454 0.39428386 0.38572082 0.31618598 0.43740827 0.44191456 0.15948662 0.2514767 0.45552373 0.27622965 0.4124936 0.5810559 0.22956853 0.29443508 0.63050383 0.50846297 0.10024017 0.21955642 0.64609444 0.54500806 0.09612596 0.19226214 0.28731668 0.33860573 0.38249967 0.59822714 0.4936985 0.09380998 0.1410646 0.29096746 0.39075696 0.41171813 0.44956982 0.39510873 0.2762375 0.086763576 0.31444117 0.4718036 0.388568 0.17705166 0.1293124 0.4946366 0.3907297 0.40384626 -0.010024805 -0.10505782 -0.054132555 0.44012094 0.38391668 -0.1407516 0.025683671 0.55921644 0.5228171 0.051607247 0.033043545 0.55649793 0.08058786 0.51775 0.41481555 0.11072015 0.4401018 0.3805619 0.10960251 0.04640823 0.049625516 -0.15163833 -0.2128309 -0.0069107413 -0.12892592 0.1643327 0.072313875 0.103037134 -0.12224503 -0.29425934 0.4238374 0.009523921 -0.44379964 0.48480773 0.45620266 -0.68918717 0.48475295 0.44311738 -0.4863341 0.46692204 0.36317194 0.41613692 0.5687413 0.16688594 -0.027119026 0.19879873 0.33555412 0.587415 -0.008199923 0.60485435 0.08949346 0.61031544 0.6249571 0.1836153 0.61770105 0.57123387 0.4513204 0.27024952 -0.1441192 0.023627691 0.2092545 0.33335608 0.41444173 0.59891456 0.53720003 0.39483035 0.26530886 0.27575928 0.54680467 0.20929784 0.24785674 0.21318401 0.45381415 0.4408535 0.30601728 0.35790637 0.335456 0.2545179 0.36420998 0.14830053 0.44300228 0.43064597 0.01789765 0.3815489 0.3963301 0.25715867 0.41444322 0.23159777 0.3148427 0.3522038 0.32816508 0.48212627 0.22452918 0.12065464 0.10194108 0.4847778 0.55114627 0.16735713 0.36884594 0.4441994 0.5099548 0.55438995 0.40194833 0.3605364 -0.051163364 0.13110653 0.29801068 0.38313118 0.40304574 0.39411312 0.0025416687 0.019475006 0.4215657 0.3994666 0.10548088 0.032919805 0.32913762 0.12671614 0.089492366 0.2268162 0.3926003 -0.034668438 -0.12243631 0.5204699 -0.0018590465 0.30852965 0.47616202 0.20844743 0.011469856 0.24176122 0.37253448 0.3375221 0.17728801 0.02322054 0.39409855 0.45158282 0.09828763 -0.04470008 0.016618423 0.33847737 -0.060462967 -0.115021914 -0.12778518 -0.11416549 -0.15361953 0.03079553 0.16198027 -0.24301788 -0.29223514 -0.44655475 0.265922 0.3180343 0.3951047 -0.38288164 0.41937697 0.40518945 0.10882479 -0.10053089 -0.4085415 0.38512027 0.42402077 0.46398157 0.28275916 0.57497895 0.543156 0.56438303 0.21175374 0.6015705 0.29945248 0.6219846 -0.1158108 -0.059748616 0.18343443 0.21577108 0.35141963 0.34652042 0.5074379 0.37235355 0.240708 0.06955729 -0.011209443 0.0953867 0.3095737 0.525128 0.47153342 0.0852053 0.5226155 0.1561603 0.14497067 0.3685321 0.16268645 0.19713323 0.29426968 0.24091966 0.33309948 0.3636015 0.03975866 0.39685017 -0.10653249 0.36611605 -0.11044626 0.22724018 0.43500733 0.5264349 0.045156438 0.5546657 0.5422898 0.14509663 0.5039259 0.5400453 0.54434675 0.17177594 0.1557532 0.2951107 0.38774893 0.46531248 0.5416337 0.4789733 0.52084386 0.51044786 0.47776628 0.3207175 0.32753503 0.17654045 0.3888573 0.258253 0.34989077 0.3449756 0.03663613 0.35686797 0.3451733 0.15372474 0.035502262 0.36815482 0.39344198 0.24516375 0.34786934 0.44792467 0.064606674 0.49548346 -0.20692012 0.25135428 0.32372174 0.37945616 0.2932864 0.35978198 0.40934324 0.033746168 0.3974092 0.46181965 0.4934222 -0.025196537 -0.047313742 0.48706883 0.5003804 -0.05724272 -0.014429934 0.42245814 0.41378224 0.46214044 0.049112312 0.25290483 0.34026447 0.21349877 0.16146836 0.21970806 -0.44663844 0.28621572 0.25989407 -0.062108707 -0.41982824 0.2658368 0.27812642 0.11715703 -0.063368745 0.21863571 0.23146242 0.16949488 0.13451564 0.32246703 0.20854874 0.1569017 0.31473404 0.392821 0.025953904 0.5131263 0.40015402 0.5562426 0.34262955 0.3656044 0.55225 0.34673172 0.3390419 0.38977653 0.22890148 0.12480618 0.20412242 0.3350887 0.49027157 0.45218325 0.10359202 0.11957092 0.1598125 0.21483658 0.45527443 0.1453634 0.37866288 0.18934645 0.23136076 0.19590773 0.2643703 0.308969 -0.13096759 0.3469196 -0.21921907 0.33502978 0.06287107 0.07480533 0.15217859 0.21133496 0.4200924 0.18109685 0.032809407 0.4985854 0.069997 0.062427893 0.50748056 0.5088477 0.13822508 0.24428561 0.34314966 0.4215679 0.47716516 0.30158746 0.14512667 0.5608871 0.54216576 0.4832765 0.58381975 0.54275537 0.4716944 0.36377037 0.58520746 0.5585706 0.15466447 0.27233452 0.30880854 0.5154766 0.43195045 0.27731967 0.08698785 0.20983666 0.25317627 0.46123028 0.1577429 0.49900347 0.4958719 -0.049733885 0.50203633 0.49609256 -0.21462122 0.34379575 0.35149768 0.49102116 0.40926793 0.43824396 0.46039388 0.4825033 0.48502225 -0.024175938 0.4979868 0.4916035 0.08483208 0.45558718 0.44908345 0.25120842 0.29780635 0.19898154 0.14934525 0.12764184 0.17739362 -0.010379989 0.18356378 0.17010352 0.22734427 0.2174769 0.25094476 0.26404232 0.22788557 0.4110373 0.3152145 -0.41208744 -0.010559879 0.4384954 0.3469879 -0.37059137 -0.061572626 0.43004274 0.26639718 0.1386768 0.3515954 0.40715617 0.2688877 0.48429602 0.36333805 0.4149789 0.4684015 0.3132246 0.25589913 0.077458546 0.0828217 0.28933138 0.31000438 0.30369484 0.2497841 0.22167431 0.13373329 0.08566352 -0.020935584 0.23014367 0.1885611 -0.051366314 0.11218222 0.16687313 0.35902002 0.16391051 0.22120018 0.21218589 0.4066683 0.39480352 0.20082991 0.17523688 0.18287492 0.21232316 -0.22149558 0.1608646 -0.19321755 0.02093646 0.26968643 0.12551498 0.3305743 0.35009494 0.23792765 0.23720756 0.3671151 0.26574004 0.2446396 0.31643963 0.24595097 0.4060424 0.45428446 0.4265522 0.2622024 0.37116444 0.40766954 0.5496549 0.32988796 0.20736007 0.15799375 0.20231926 0.5667935 0.477351 0.37405246 0.2713292 0.5515136 0.47911397 0.40219003 0.2630154 0.26319498 0.44232446 0.5691235 0.577274 0.56297076 0.22301662 0.18303013 0.46162555 0.17479697 0.13967088 0.34886095 0.34203082 0.41127133 0.4735706 0.16335315 0.5077269 0.4998885 0.24005054 0.5048176 0.49953023 0.23699528 0.31326097 0.4057736 0.36887044 0.44200677 0.45772904 0.06944617 0.46579754 0.27150133 0.42482138 0.2858312 0.26400924 0.28547 0.28612942 0.22020815 0.09462327 0.10393113 0.13778254 0.0008301735 0.5128692 0.22808069 0.545975 0.5060258 -0.36355707 -0.261864 -0.043073922 0.25549382 0.5219172 -0.36475134 -0.42724293 0.4965402 0.4221456 0.25775695 0.351025 0.41031766 0.15705882 0.4466234 0.1393633 0.30013406 0.053517662 0.24651465 0.30111372 0.1988486 0.17599238 0.16402754 0.20667909 0.27224493 0.27061412 -0.18734857 -0.46197894 0.008727178 -0.019962411 -0.047047175 0.20146503 0.2558147 0.08676469 0.07909575 0.2139895 0.23937032 -0.12431586 0.19603541 0.15202102 0.11142134 -0.26423606 -0.1799999 0.26395178 -0.009694984 0.21163693 0.5242227 0.42647666 0.34937367 0.64156204 0.59092814 0.49484867 0.38918024 0.409778 0.6934004 0.64090675 0.30581912 0.39439785 0.660035 0.57659847 0.23243253 0.31662306 0.36582708 0.21700007 0.19235681 0.1140095 0.22285125 0.091691166 0.20429362 0.25047234 0.48481745 0.22601986 0.5601803 0.5715666 0.13409328 0.5748451 0.52246076 0.41497383 0.25576818 0.16003509 0.10555213 0.50277144 0.33795524 0.3080262 0.57613266 0.5775433 0.5358983 0.5716922 0.57477725 0.395056 0.5533898 0.5630073 0.50952065 0.40312147 0.2364526 0.47984114 0.45309615 0.524627 0.52064157 0.20277795 0.50751793 0.43081152 -0.042222463 0.030153181 0.2949493 0.43312553 0.0925676 0.305155 0.46995184 0.51022476 0.064600036 0.48032403 0.46016818 0.2535333 0.4937709 0.1037281 0.49401498 0.26220965 0.45851603 0.30693117 0.30298457 0.34881806 0.07382366 -0.069144465 0.3890401 0.43909886 0.22009999 0.4560222 0.25340715 0.42935592 0.31569037 0.2872643 0.2921001 0.32268602 0.324624 0.07680993 0.07046609 0.5911099 0.5921638 0.076829486 0.577854 -0.56105924 0.24704362 0.5570855 -0.3981086 -0.4359659 -0.06793134 0.40314427 0.37916467 0.538099 -0.21450743 0.10384687 0.2645965 0.48487878 0.47661042 0.5038764 0.4213221 0.57105374 0.59040517 0.5904025 0.6093991 0.34170127 0.43360335 0.60030115 0.61127985 0.6161541 -0.07488966 0.49683458 0.55305696 0.5604443 0.5745828 0.15920791 0.50074565 0.51023775 0.21457186 0.19060645 0.24584371 0.1920992 0.263935 -0.0039059743 0.23322353 0.23742613 0.23859823 0.22941571 -0.15289415 0.23033366 0.29145268 0.31617117 0.30158013 0.04247176 -0.046993736 -0.058974575 0.17692445 0.12337294 -0.17290713 0.053392466 0.3382854 0.25743723 -0.2873272 -0.05041277 0.12686175 0.45406008 0.063346125 0.17925924 0.26680905 0.34295478 0.4241656 0.64187837 0.56501484 0.48499113 0.31652272 0.35467058 0.420209 0.4638077 0.6999508 0.67379177 0.43576536 0.73640835 0.7264849 0.3628493 0.3750678 0.7195201 0.6901623 0.60870206 0.32143903 0.33896026 0.16867536 0.20279114 0.28052652 0.31435877 0.13179675 0.5044056 0.5465934 0.5608177 0.2809042 0.12684985 0.094798006 0.53501487 0.44265074 0.37753922 0.29583126 0.17314406 0.5496032 0.57828933 0.5617183 0.5262846 0.24300367 0.5525203 0.5165809 0.005092062 -0.00012771413 0.47210538 0.3170374 0.17888138 0.15746266 0.36656556 0.4257577 -0.033061154 0.25275394 0.31452572 -0.2146965 -0.22596213 0.22868392 0.44648367 0.5020432 -0.028454462 0.52821565 0.5262214 0.020613482 -0.06469747 0.49797416 0.50263834 0.30094087 0.40181836 0.46671575 0.21255505 0.051550068 0.19937421 0.023953244 0.24497776 -0.4989819 0.2918379 -0.3738616 0.43298584 0.24519114 0.39193976 0.26793045 0.3062312 -0.08531082 0.16138935 0.015364856 -0.059139125 0.55293924 0.4913658 0.0060894564 0.58748305 0.54423237 -0.05410123 0.5710521 0.5664026 -0.4348146 -0.025748976 0.5638523 0.552876 -0.2951909 -0.49958614 -0.34705043 0.37641022 0.438991 0.5441313 -0.20933297 -0.27632183 0.14594343 0.4888138 0.4992717 0.5148846 0.47611272 0.2103782 0.6018841 0.2967394 0.61840236 0.6343335 -0.086589366 0.17521444 0.29170933 0.52721137 0.5450728 0.58288 0.081990935 0.03933701 0.16586456 0.41332576 0.4615332 0.47668755 0.46145943 0.14128226 0.1745486 0.16378136 0.19755134 0.17843401 0.09661869 0.16918507 0.23260751 0.2284899 0.09966313 0.093569756 -0.2613505 -0.2448313 0.11080779 0.2907078 -0.06544828 0.08385235 0.21647213 0.3238249 0.36660212 0.31931454 -0.024371551 0.17918056 0.2160453 0.24334243 0.0077663027 0.07460119 0.07997012 -0.096029565 0.030211553 0.33319873 0.26924527 0.14976856 0.09027837 -0.07366654 0.10076083 0.4493052 0.09039696 0.37527838 0.47017112 0.49651945 0.63464856 0.4723211 0.49533474 0.48586276 0.73602176 0.46495354 0.43626624 0.7658142 0.7458718 0.38832396 0.7275871 0.6549419 0.57778895 0.3020488 -0.05814937 0.35685182 0.35935915 0.3035239 0.055377677 0.29377997 0.12928928 0.42385718 0.17199579 0.5095519 0.52480584 0.12785706 0.124294445 0.37760168 0.3360207 0.21055678 0.14178944 0.10950051 0.6520909 0.62010324 0.69442725 0.6797986 0.5245304 0.5561151 0.5125046 0.48232037 0.23134655 0.04017786 -0.0072381776 0.026156863 0.4379279 0.34254685 0.41205224 0.30676997 0.2335918 0.12114227 -0.22130466 -0.034415834 -0.11496484 0.17700157 0.36756903 0.47095424 0.467668 0.49027666 0.44787842 0.38851577 0.06254231 0.02114503 -0.10977416 -0.22559595 -0.26364836 0.14102708 0.14081065 -0.15917158 -0.58967096 0.073771805 0.15553683 0.1790615 -0.14757785 0.43715137 0.071669 -0.045386724 0.5169984 0.6192759 0.44051296 0.68166083 0.3920305 -0.0768196 0.6377268 0.5390833 0.29449984 0.24661125 0.51834285 0.49668986 -0.09020116 0.52843237 0.38096496 0.4967821 0.3382529 0.5205187 0.5566417 0.48481834 0.22314176 0.58026373 0.60987896 -0.19520889 0.6220421 0.0039102584 -0.2062155 0.14528991 0.5239141 0.5517648 0.0825061 0.10405957 0.002505526 0.09863079 0.20447996 0.2890203 0.34838337 0.3879249 0.4396587 0.05395838 0.08504167 0.17975692 0.07909067 0.037261955 0.039363347 0.14989553 -0.103925236 0.2565949 0.24347295 -0.061664145 -0.14948265 -0.46827605 -0.075352356 0.29873595 0.0025607832 -0.020077338 0.05872823 0.11128156 0.14441264 0.29292673 0.37989762 0.07283321 0.024497893 -0.5636488 0.07532163 0.14297947 0.091513366 0.2545158 -0.34814188 -0.04645055 -0.0044048186 0.22645923 0.3683657 0.38820976 0.49714118 0.26816997 0.292261 0.52298105 0.51846385 0.640084 0.48362267 0.73891544 0.428016 0.7566775 0.36261103 0.7179303 0.5861377 0.4160614 0.3460107 0.34337983 -0.030066406 -0.037904914 0.28638795 0.3269574 -0.057263788 0.10450649 0.15688083 0.24310908 0.13601744 0.20228551 0.20116845 0.21870905 0.40942085 0.13666087 0.17243768 0.05699852 0.07690855 0.096845135 0.15856001 0.51208055 0.3598172 0.3366893 0.60487354 0.60497415 0.5413198 0.80597997 0.7525419 0.6793511 0.6113529 0.85646415 0.8285863 0.79213405 0.7034396 0.6477767 0.59790945 0.67601657 0.6588806 0.616841 0.5431851 0.6546272 0.6156563 0.5800836 0.49607682 0.5728238 0.46117145 0.39745703 -0.03836806 0.19686797 0.047717243 -0.08190289 0.38166878 0.3750512 0.29042113 0.2930776 0.3755544 0.21337797 0.33736786 -0.049142152 0.16048537 -0.24978645 -0.14270702 -0.0983329 0.18354325 0.32929677 0.41143844 -0.06461131 -0.016640931 0.03798753 0.06507837 0.41473383 -0.18647702 -0.14572717 0.41102445 0.32565308 0.31392086 0.08575984 -0.015734296 0.23045912 0.12162781 -0.15703748 -0.09109188 0.03415787 -0.18548043 0.35613972 0.5759084 -0.12396833 0.631675 0.70528364 0.78400946 -0.120610446 0.6651274 0.77015495 0.32488346 -0.36806497 0.4607219 0.61927253 0.7131597 0.185038 -0.23093586 0.6360636 0.3344714 0.2997165 0.31288412 0.34362006 0.13903025 0.48401412 0.23887272 0.20786685 -0.6026249