# vtk DataFile Version 2.0
Really cool data
ASCII
DATASET POLYDATA
POINTS 2240 float
-18.651625 -9.292677 -0.56702685
-18.69229 -9.372756 0.2411339
-18.617628 -9.071678 0.8581271
-18.607998 -8.623346 -0.9240485
-18.71505 -8.585438 -0.43685117
-18.680914 -8.581986 0.44976205
-18.649597 -8.146488 -0.4159496
-18.655605 -8.139936 0.17587721
-17.801893 -10.64362 -0.5123097
-17.856125 -10.61896 0.08294909
-18.093193 -9.954781 -1.0395482
-18.220884 -10.154818 -0.54257584
-18.212858 -10.176457 0.24966566
-17.993954 -9.94306 0.9865694
-17.793854 -9.397753 -1.6377422
-18.29133 -9.312466 -1.2084379
-18.478682 -9.568514 -0.7793327
-18.394392 -9.7514925 0.66144097
-18.23784 -9.338172 1.1079382
-18.264595 -8.477778 -1.2827737
-18.257448 -8.535924 1.176029
-18.161072 -7.930918 -1.0995617
-18.24152 -7.7387333 -0.46877787
-18.198368 -7.8102093 0.46876287
-18.023714 -8.057212 1.1719466
-17.422157 -10.797582 -0.47047275
-17.507383 -10.544423 0.58333707
-17.627977 -10.224047 0.9770911
-17.737024 -9.391764 -1.5264964
-17.687181 -9.681721 1.3905536
-17.383307 -9.264883 1.6426997
-17.714909 -8.529538 -1.7338428
-17.242777 -8.3279505 1.6412657
-17.168322 -8.175846 -1.7668309
-17.53809 -7.7947516 -1.4196804
-17.403599 -7.9281883 1.3981103
-17.28704 -7.3435044 -0.8976134
-16.944979 -7.159465 -0.78594273
-17.12619 -7.3815293 0.68570733
-16.196941 -10.816903 -1.6896378
-16.436064 -11.315323 -0.4006211
-16.48892 -10.84104 0.8941418
-16.45934 -10.586253 -1.7004179
-16.34812 -8.92847 -2.0970979
-16.002853 -8.470879 1.8776511
-16.00597 -7.5264206 -1.6272104
-16.609285 -7.5974493 1.2879384
-16.41524 -7.261657 -1.2509232
-16.259226 -7.0539346 -0.5332084
-15.906229 2.0296328 4.259232
-15.851527 2.9309838 3.1611142
-16.171555 2.613501 3.9703498
-16.193628 2.774392 4.447378
-15.883489 2.7911587 5.1850095
-15.87094 3.567472 3.2340374
-16.185 3.3824637 3.6882806
-16.235945 3.5613604 4.475784
-15.957906 4.092581 3.7746408
-15.964476 4.184025 4.2947693
-16.02831 4.0425076 4.844937
-15.596139 4.5712376 8.795598
-15.5653305 4.578891 9.313075
-14.662838 -17.640007 -2.2260926
-14.646891 -17.672369 -1.7597654
-14.853814 -15.830558 -8.267693
-14.814755 -15.996532 -7.637751
-14.767842 -16.008183 -6.699326
-14.695613 -15.915753 -5.751554
-14.626951 -16.826166 -1.795765
-14.813005 -15.444133 -8.823262
-14.966867 -15.356489 -8.484053
-15.066381 -15.413683 -7.5718136
-14.975488 -15.384447 -6.7608614
-14.840086 -15.710527 -5.7362275
-14.654607 -15.174632 -5.2148514
-14.840631 -14.772377 -8.785782
-15.001289 -14.827742 -8.401943
-15.080555 -14.7504635 -7.6885767
-15.060044 -14.963259 -6.858593
-14.872906 -14.30149 -5.742427
-14.734186 -14.1062 -8.000656
-14.802841 -14.069595 -7.247428
-14.689906 -13.754543 -6.395461
-14.767502 -14.043995 -5.838642
-15.797623 -11.187713 0.81670034
-15.707236 -10.149141 1.4618645
-15.587275 -9.542771 -2.345281
-15.350654 -8.876911 -2.2413049
-15.561464 -7.8006043 -1.7166693
-15.5113945 -7.8641777 1.5618469
-15.564408 -7.229171 -1.2778319
-15.508903 -7.01626 -0.56311285
-15.579554 -7.156658 0.34563214
-15.787206 -7.309304 0.91699606
-14.652016 -0.056803346 4.9012675
-15.157452 0.5960612 3.6971927
-14.916431 0.32173812 4.660174
-15.047351 1.7120326 2.8690662
-15.404278 1.2756802 4.4031825
-15.095618 2.531544 2.7080584
-14.8818 3.135497 9.334659
-15.387426 3.6003613 2.7893653
-14.966804 3.46304 6.9996357
-15.114423 3.3739655 8.234355
-15.376189 3.8196034 9.379975
-15.255207 3.9002755 9.892816
-15.128571 4.2891593 3.0546675
-15.379323 4.4973593 3.4111972
-15.519988 4.4684315 4.9849977
-15.44228 4.1783185 8.297291
-15.495666 4.6262197 9.558606
-15.2725115 4.3823843 10.090363
-14.739322 4.731077 10.731115
-14.899957 4.6737227 3.2333066
-15.113442 4.7886343 3.590552
-15.122568 4.9113064 4.1571903
-15.182712 4.692799 4.9375486
-15.426829 5.3687525 8.106768
-15.430759 5.463992 8.384997
-15.391586 5.4768333 9.420977
-15.141803 5.700289 10.038695
-14.674359 5.744087 10.921509
-14.933925 6.298202 8.739063
-14.878011 6.270018 10.245545
-13.936923 -19.01726 -2.1614864
-13.853638 -19.16649 -1.5241402
-13.696944 -19.062496 -0.9687648
-14.187714 -18.297426 -2.7817504
-14.358145 -18.342524 -2.348101
-14.332215 -18.38221 -1.6108831
-13.997086 -18.289778 -0.8770976
-14.043106 -16.787252 -6.6529946
-14.213778 -17.280376 -3.1621454
-14.505197 -17.375046 -1.348063
-14.300115 -17.514933 -1.0148174
-14.298339 -15.8788595 -8.907964
-14.352045 -16.114729 -8.539518
-14.611847 -16.216461 -7.846127
-14.475029 -16.43011 -6.214872
-14.011538 -16.448154 -3.922397
-14.451402 -16.43782 -1.8219352
-14.288907 -15.361713 -9.197777
-14.159248 -15.122123 -4.510321
-14.003659 -15.524802 -2.419491
-14.1753435 -16.082275 -1.6317725
-14.24989 -14.787451 -9.207181
-14.620073 -14.335913 -8.694616
-14.324522 -14.19235 -4.7362394
-13.761645 -15.132402 -1.3878222
-14.173977 -14.076936 -8.8228245
-14.274507 -13.83546 -8.306776
-14.327774 -13.606191 -7.6268516
-14.58113 -13.712271 -6.653288
-13.839619 -14.066339 -3.1567822
-13.688633 -13.890973 -2.9414485
-13.707411 -12.623225 -0.6622283
-13.599108 -12.892067 -3.0258496
-14.2444105 -11.893792 0.41459674
-14.156014 -11.680682 0.7344826
-13.707406 -12.647183 3.8386834
-13.716366 -12.395222 4.2812347
-14.582772 -10.883001 -2.4945033
-14.112844 -11.025382 1.4553419
-13.784668 -11.513646 3.7122986
-13.702745 -11.617492 4.315286
-14.426875 -8.693418 -2.212285
-14.959204 -7.72873 -1.6159803
-14.445813 -8.059394 1.3489883
-15.028701 -7.2181616 -0.8870645
-15.150337 -7.104244 -0.6249447
-13.986386 -1.4281373 3.6865256
-14.062262 -1.1637728 4.212449
-14.149666 -0.45776436 2.2429755
-14.176553 -0.41163683 2.3537223
-14.544429 -0.61037755 3.7243361
-14.495096 -0.37655154 4.6629124
-14.269372 -0.038452685 5.3147163
-14.435792 0.09856549 2.6045928
-14.52591 0.75032234 5.6506696
-13.981835 0.39556253 5.8497605
-14.021513 1.8738252 2.2653801
-14.233906 2.8677955 2.4992256
-14.546688 2.5966198 8.87556
-14.379097 3.1481926 10.032077
-14.158044 3.815441 2.4267094
-14.481399 3.1271265 2.495
-14.474464 3.6306016 10.468178
-14.442368 4.123864 2.6605327
-14.499326 4.6335645 10.826711
-14.524682 4.735689 3.0956712
-14.245076 5.034711 3.489267
-14.724305 5.0889926 4.2122045
-14.59057 4.9142632 5.3782372
-14.370676 5.702289 11.106142
-13.998957 6.5654154 7.9028125
-14.432592 6.665065 10.684223
-14.260635 6.2144995 11.076367
-14.49784 6.7895303 8.782129
-14.150704 7.154759 9.396773
-14.162686 6.9916887 10.36329
-13.037203 -19.703453 -2.4171424
-13.073243 -19.814653 -1.4616829
-13.020936 -19.708267 -1.0117308
-13.025668 -19.366413 -2.68511
-13.533506 -19.52867 -1.3682923
-13.335299 -19.218006 -0.7607826
-13.046582 -18.871634 -0.30260515
-13.001483 -18.085735 -3.9030232
-13.077791 -18.17299 -3.457599
-13.495872 -18.529707 -0.4779332
-13.022569 -18.10913 -0.039578974
-13.515428 -16.761887 -7.508895
-13.67455 -17.012075 -5.7018814
-13.572688 -16.903446 -4.421455
-13.626628 -15.9720745 -8.97556
-13.838257 -16.40777 -8.061557
-13.633496 -16.666494 -0.519421
-13.171557 -16.407429 -0.2243201
-13.508883 -15.311756 -9.334913
-13.210101 -14.545432 -9.342081
-13.212083 -14.52387 -0.768378
-13.316933 -13.90838 -9.012057
-13.468684 -13.533641 -8.566172
-13.076372 -13.911156 -0.62388706
-12.89015 -13.171911 0.3794439
-13.139548 -13.119637 3.5835547
-13.107827 -13.180328 4.3454785
-13.02552 -12.954394 4.8991284
-13.133082 -13.308852 -8.296224
-13.169221 -13.087656 -6.9362917
-13.340555 -13.012323 -5.8064475
-13.417027 -12.783968 -3.5972269
-13.52072 -12.659165 4.6403418
-13.083668 -12.490772 5.1081476
-13.283678 -11.646314 4.909996
-13.413116 -10.371308 -2.7808201
-13.079477 -10.546278 4.4344807
-13.174988 -11.059854 4.72323
-13.535887 -9.7129545 2.1990867
-13.281823 -9.978453 3.5395367
-12.970826 -10.046643 4.0638967
-13.840868 -8.57857 -2.0885096
-13.678741 -8.387258 1.1669042
-13.252898 -7.9045277 -1.2280345
-14.124142 -7.9921618 1.0960796
-13.022811 -1.6988461 3.0752838
-13.419707 -1.72528 3.5517921
-13.474994 -0.97143114 2.1927896
-13.448668 -1.3267651 2.5430317
-13.66128 -0.90259224 4.868973
-13.285872 -0.24669765 1.6591903
-13.090964 0.48584977 1.5674822
-13.02639 0.66726375 6.4241486
-13.240728 1.3373215 1.7196223
-13.618327 1.660856 7.3152423
-13.752032 2.03396 8.947854
-13.608943 2.268832 2.0520318
-13.57053 3.2890606 2.1671467
-13.434583 3.910952 11.220501
-13.875803 4.632231 2.9081483
-13.211547 4.5387917 11.684163
-13.640802 4.914584 3.1171012
-13.624923 5.1965017 3.6555228
-13.100788 5.422904 4.2872105
-13.446355 5.688431 11.523902
-13.387416 6.223015 11.494263
-13.37542 7.412602 9.305603
-13.515417 7.205708 10.457261
-13.507785 6.857515 10.993702
-11.643236 -20.132292 -6.282252
-12.72743 -19.76378 -2.3427193
-12.712363 -19.93435 -1.4101343
-12.57545 -19.799662 -0.9930852
-11.88992 -19.443249 -6.807808
-11.988596 -19.329885 -6.320119
-11.929441 -19.137917 -3.3498666
-12.12147 -19.514523 -2.6488616
-12.631654 -19.456295 -0.6006228
-12.761825 -19.109095 -0.376319
-12.125369 -18.737242 -6.542589
-12.478096 -18.38958 -5.8196926
-12.264668 -18.197817 0.09654257
-12.223485 -17.517305 -7.5356665
-12.397735 -17.62661 0.23755217
-12.64941 -15.869086 -8.848452
-12.75089 -16.427008 -8.306057
-12.560032 -16.506643 0.21363714
-12.709085 -15.166957 -9.268481
-12.569843 -14.583242 -9.301002
-12.46989 -15.009563 -0.07785815
-12.433354 -13.570414 4.0869117
-12.519065 -13.633067 -8.91588
-12.712648 -13.468954 4.0019813
-12.399471 -13.4016695 4.498586
-12.348529 -13.106947 4.9382706
-12.335646 -13.269153 -8.370971
-12.23343 -13.081596 -7.721728
-12.334943 -12.806558 -5.751044
-12.537105 -12.543017 5.2677684
-12.557685 -11.778947 5.2942066
-12.491123 -10.86549 5.0540953
-12.293744 -9.718541 4.041549
-12.323866 -9.241247 -2.5831914
-12.535724 -8.931796 -2.19604
-12.968649 -8.1728 -1.7612827
-12.345433 -8.191894 -0.67915666
-12.2345495 -8.081503 -0.019585846
-12.46671 -1.7636423 3.083072
-12.954102 -1.7806462 3.7499301
-12.537554 -0.91428745 2.026554
-12.870275 -0.4032848 1.625488
-12.868102 0.46925023 1.5340805
-12.579076 1.457018 1.7243743
-12.78844 1.683865 8.477286
[...]
POINT_DATA 2240
SCALARS features_00 float 1
LOOKUP_TABLE default
0.8520676 0.8600075 0.8725239 0.85499865 0.8783597 0.9070896 0.8840896 0.90556574 0.7277614 0.7133788 0.7809757 0.79445827 0.77106893 0.74537516 0.76557827 0.8193778 0.8318389 0.8027365 0.8272424 0.83884764 0.89890933 0.84891784 0.8843473 0.9204807 0.91315675 0.6841895 0.65778303 0.6778322 0.7640302 0.7316522 0.77941984 0.79775673 0.8443813 0.721619 0.7850721 0.8605292 0.75341725 0.6879538 0.8564726 0.6286598 0.5848338 0.5343292 0.6545851 0.59076655 0.64633346 0.5467253 0.74337673 0.5979169 0.62324005 0.630038 0.73529756 0.73996603 0.7129271 0.5844507 0.7307512 0.7744305 0.75926745 0.72069335 0.71542645 0.709566 0.5242854 0.5500038 0.6147309 0.65624654 0.78615737 0.6919643 0.56742597 0.44008723 0.5500761 0.8638936 0.8345935 0.7198162 0.6063694 0.46330088 0.43012637 0.8675139 0.8275666 0.7449792 0.63319576 0.52773786 0.7683403 0.69419265 0.6131599 0.538868 0.40297455 0.44961965 0.4795046 0.44738603 0.5019094 0.613681 0.52886844 0.56668687 0.677323 0.6919829 0.4020744 0.523101 0.40515155 0.5907143 0.48677194 0.5769784 0.5205313 0.6504049 0.34943023 0.46948713 0.5349675 0.55818266 0.63069093 0.6520021 0.64190876 0.48338544 0.5623683 0.5775032 0.59221256 0.6088457 0.62512255 0.6227131 0.61422694 0.51708686 0.5483096 0.58801985 0.6210137 0.6230439 0.63412106 0.65717995 0.7278833 0.7220127 0.67742556 0.60866386 0.66998637 0.7143913 0.68319845 0.46511465 0.4721583 0.62897384 0.6399636 0.8478352 0.78764915 0.69746304 0.46069136 0.25368 0.48297614 0.9194544 0.2714524 0.24604481 0.4183455 0.93878627 0.85426396 0.3227595 0.25175625 0.87659264 0.8024603 0.7246568 0.6397948 0.0705874 0.0891673 -0.06929128 0.084239766 0.08630131 0.10908165 0.7730318 0.8120182 0.41370517 0.1488918 0.7153152 0.791474 0.38429213 0.4507271 0.4831484 0.48830327 0.5238208 0.6706276 0.55044353 0.6982246 0.7029662 0.5856546 0.42539293 0.34907368 0.68385744 0.30380532 0.27264488 0.43163288 0.49695975 0.46494937 0.5112567 0.5410782 0.53460777 0.55080223 0.57231224 0.5847459 0.5800203 0.5567916 0.5845367 0.5262103 0.6141892 0.5393558 0.65625143 0.63132644 0.6412216 0.6486178 0.6619509 0.70542425 0.70780885 0.6643953 0.6600467 0.704249 0.6453994 0.59857637 0.32060826 0.4577259 0.6305929 0.58613193 0.5496111 0.19196181 0.15155965 0.83367324 0.68671477 0.50285333 0.44558436 0.94293094 0.9475663 0.12879956 0.89742196 0.83362913 -0.06760888 -0.21859694 0.6632755 0.7224053 0.740042 0.76352435 0.5948071 0.5129832 0.14249101 0.79047143 0.7927189 0.8103963 0.28661293 0.6188213 0.7298551 0.31798774 0.4363025 0.48605233 0.3480206 0.27670887 0.3323126 0.43454906 0.66822445 0.6757238 0.6989745 0.70211536 0.40371987 0.6380144 0.52748406 0.09956296 0.41523516 0.05316311 0.29595825 0.41091812 0.4592126 0.5456778 0.5357698 0.57357347 0.5171112 0.50836974 0.46012235 0.58368677 0.5878272 0.595547 0.62747926 0.6161784 0.4390301 0.6983181 0.69122815 0.6380481 0.4208256 0.3708761 0.49563134 0.61378336 0.60462797 0.5950331 0.31826037 0.056340333 0.5473212 0.26607925 0.565933 0.7631235 0.6324855 0.4948883 0.8585627 0.84915304 0.16798674 0.6116395 0.7745777 0.64124507 0.64072955 0.66935253 0.6835438 0.58187336 0.30953386 0.75734603 0.80830985 0.69387865 0.42957455 0.2487764 0.28241456 0.31318375 0.325807 0.31178552 0.55379206 0.58521366 0.64756894 0.62298596 0.51089185 0.39073807 0.19946931 0.2172458 0.25851902 0.39240986 0.30044717 0.35024756 0.43276924 0.42274725 0.3693353 0.5069918 0.5408233 0.43233234 0.5180641 0.55754054 0.5273336 0.56810725 0.54538715 0.5299533 0.51509535 0.5296411 0.5024611 0.3891279 0.51651764 0.44472688 0.57034916 0.5406317 0.3982946 0.52612007 0.64470905 0.60582405 0.70969427 0.390862 0.46835464 0.67080534 0.6201201 0.54242694 0.61818016 0.6111821 0.5246076 0.401824 0.16096252 0.05947215 0.6448445 -0.094109535 0.7148885 0.323595 0.35591015 0.22944535 0.15857738 0.30107635 0.29602766 0.28234708 0.14204271 0.09227389 0.48725802 0.4024203 0.15578927 0.37732917 0.36213243 0.28164312 0.19794998 0.40505585 0.088988796 0.4113776 0.62556314 0.67654335 0.6314529 0.60151505 0.59964454 0.5818685 0.5552535 0.5768637 0.5691305 0.5803163 0.5305606 0.49192172 0.57129335 0.5331105 0.5830418 0.4390415 0.38573644 0.45856094 0.25095344 0.38492006 0.22596371 0.31675372 0.6297451 0.5587062 0.4163713 0.4381632 0.5754034 0.50053716 0.39331263 0.4945687 0.47039977 0.5373529 0.5621428 0.53507376 0.31886077 0.13464005 0.22009698 0.121455684 0.113018975 0.28029844 0.22280122 0.4609055 0.1533351 0.0594635 0.07791979 0.106387876 0.1052379 0.14632842 0.14694452 0.20685361 0.34407926 0.23484328 0.3064531 0.16703737 0.27588147 0.26471347 0.24093865 0.31433022 0.739224 0.6981858 0.6674125 0.5948699 0.7559174 0.7544701 0.5869074 0.5446104 0.5973448 0.6084325 0.57994556 0.5286302 0.48697403 0.58415204 0.5909558 0.57248443 0.54179835 0.36035433 0.27646172 -0.18336786 -0.09136913 0.32615095 0.3709966 0.37374187 0.4216318 0.40348664 0.15414064 0.1353955 0.49814793 0.016110772 0.4672451 -0.02925509 -0.015699524 0.29314047 0.0075972304 0.14408436 0.13045631 0.30985102 0.46232772 0.43058336 0.5334554 0.47298515 0.4495319 0.24950176 -0.0054078177 0.2781133 0.4804461 0.51117086 0.056719437 0.46473378 0.055541545 0.1915755 0.2642787 0.23852018 0.22818828 0.24214216 0.23830718 0.013006233 -0.06644828 0.2318849 0.19362584 0.2289837 0.7832345 0.8075914 0.650825 0.8327317 0.8280599 0.8252734 0.56563926 0.602723 0.5051138 0.5708432 0.56636333 0.2953229 0.5450053 0.15857437 0.51188254 0.3485675 0.44583187 0.44682652 0.17286853 0.18721771 0.115464695 0.13262114 0.2522356 0.25285503 0.18262541 0.26285148 0.19695392 0.15905455 0.21912928 0.08298384 0.10385396 0.6242598 0.61550975 0.64380443 0.19545296 0.37314326 0.49689138 0.55303586 0.6242514 0.11015467 0.15837887 0.36864024 0.447276 0.56932175 0.6347392 0.3301381 0.03391897 0.6281862 0.5652294 0.46018606 0.4159511 0.45563105 0.45493186 0.47469157 0.24266618 -0.24052945 -0.13593706 0.11348164 0.19180976 0.33236197 0.22756797 0.7473846 0.81280327 0.6467936 0.84195185 0.8475004 0.82670015 0.72687745 0.57214874 0.08229853 0.09053241 0.09697788 0.19603282 0.27371058 0.38003933 0.43420228 0.44607008 0.46841836 0.4638569 0.096383624 0.46190065 0.01662302 0.15199196 -0.10912374 -0.14647667 0.1992777 0.15731439 0.20621163 0.20872906 0.17551813 0.14884527 0.22684878 0.101668656 0.17766851 0.24629697 0.1160011 0.33829927 0.09798083 0.67680985 0.7070584 0.35649613 -0.07880087 0.150742 0.5241567 0.66484123 0.67607063 0.6629553 0.65093994 -0.054418914 0.65007377 0.64812326 0.4368521 0.6390087 0.4291567 0.44829285 0.47034198 0.31963646 0.39822564 0.50589895 0.35031277 0.32019138 0.2753512 0.4625554 0.24702503 0.42036045 0.14969705 0.2604883 0.38435733 0.45938915 0.67748225 0.7736689 0.7087734 0.68984735 0.64221036 0.5823955 0.8027071 0.7191241 0.14647955 0.112896115 0.10669461 0.29548606 0.17714518 0.25950706 0.3780557 0.4257004 -0.19877413 0.44177318 0.4169234 0.40032247 0.38046902 0.0958901 0.16363105 0.17798583 0.24351424 0.19070601 0.18815832 0.19094968 0.20982736 0.285874 0.34963915 0.36176965 -0.04756643 0.7166556 0.37610176 0.36967447 0.69623965 -0.0722747 0.6552945 0.6416491 0.62850964 0.6026602 0.633665 0.63721186 0.4332637 0.49554634 0.34975514 0.4973849 0.4221968 0.23261848 0.15866186 0.090354845 0.4836539 0.55718875 0.5288315 0.5647799 0.47311985 0.5754818 0.120685235 0.45922685 0.62249434 0.45545116 0.48645502 0.5842514 0.62581 0.58766127 0.65348667 0.664992 0.6598423 0.6007598 0.6756892 0.6692354 0.637176 0.63510805 0.51292527 0.5798644 0.48803693 0.2156344 0.22592996 0.30273294 0.16350499 0.31196246 0.2898635 0.37077168 -0.006689783 0.16427553 0.34551233 0.32180956 0.22859019 0.5391605 0.5049263 0.24323863 0.09804682 0.1069798 0.18973818 0.23691618 0.20096706 0.10833959 0.11950048 0.17195754 0.17046843 0.21689378 0.383285 0.46112725 0.629938 0.6549554 0.38572103 0.3880219 0.3230139 0.67785513 0.570375 0.5091008 0.6492423 0.6145607 0.43096128 0.5948399 0.5590489 0.56843674 0.53010917 0.41783473 0.5346321 0.46047676 0.25847238 0.4625396 0.34175164 0.3231656 0.39111418 0.45275053 0.4374354 0.38129085 0.48521638 0.4212311 0.3999532 0.25637257 0.18016239 0.0145263355 0.5212668 0.595909 0.10907138 0.6304399 0.11788596 0.65111744 0.6854594 0.78221786 0.52316225 0.7813901 0.7993174 0.7101989 0.67801505 0.5858594 0.6762874 0.6699399 0.6352147 0.58077526 0.53913474 0.4719618 0.21840733 0.22377075 0.27717346 0.27140325 0.15874575 0.06559917 0.3396613 0.36507434 0.45078224 0.42396998 0.42548478 0.38281852 0.31055713 0.35282275 0.21928197 0.18833926 0.5548601 0.12389084 0.56568146 0.20806818 -0.07207291 0.26396382 0.30977565 0.3200599 0.3236445 0.32159716 0.26815718 0.17109583 0.38442543 0.23795947 0.22312461 0.24113137 0.42101938 0.17321864 0.58196574 0.4664985 0.54898906 0.63297534 0.6159742 0.488415 0.5771164 0.44553018 0.61490333 0.6234979 0.49528652 0.59606445 0.4247433 0.38134432 0.22273868 0.449367 0.45126218 0.05430708 0.020108 0.10515527 0.2945161 0.3431745 0.4352253 0.37061232 0.2891711 0.24408764 0.08142617 0.06920669 0.11974674 0.35965267 0.08990147 0.11651285 0.5470627 0.6080376 0.15875518 0.76410276 0.8688681 0.35438246 0.4587558 0.8731613 0.5520203 0.6397923 0.7372078 0.80641824 0.85165364 0.7630512 0.76648664 0.7442964 0.69350356 0.5809113 0.7101859 0.65593344 0.6018733 0.4745047 0.19654459 0.35981774 0.41198245 0.27555567 0.21404904 0.44792157 0.48681 0.5141343 0.5131074 0.47801283 0.4999167 0.51026756 0.4512122 0.45441544 0.462227 0.2961023 0.39666182 0.2799881 0.39816886 0.41739812 0.23302312 0.5216361 -0.16480681 0.55700284 0.5604341 -0.14929357 0.5825727 0.55409503 0.46269548 0.32935062 0.45229986 0.37932 0.3768404 0.47692937 0.29827023 0.36217532 0.06596569 0.1100368 0.3857342 0.1489403 0.38261044 0.33327788 -0.008870296 0.25208378 -0.06612946 0.17370297 0.09191648 0.31066632 0.36505222 0.6565244 0.36542115 0.6513584 0.65950495 0.11175639 0.1419414 0.29280788 0.64182854 0.1262517 0.14825553 0.6043121 0.5010483 0.093780935 0.18950611 0.21268438 0.10902877 0.15393403 0.4115053 0.39334244 0.45905745 0.41625312 0.43693873 0.76202 0.44272614 0.48611662 0.8292688 0.9262901 0.5486082 0.55410075 0.94443977 0.9332166 0.6666732 0.755092 0.8273308 0.8505542 0.74973315 0.7961947 0.76586765 0.82149136 0.7620019 0.676 0.70986634 0.62872857 0.5631542 0.5028639 0.44518313 0.17227311 0.40406287 0.47578454 0.40533298 0.43292487 0.50790566 0.5345553 0.51007146 0.5281037 0.5454934 0.5445894 0.5264507 0.51538754 0.49640316 0.4903515 0.28940213 0.4065957 0.304757 0.36511192 0.22242431 0.48994038 0.18065482 0.5595721 0.5744521 -0.1556137 0.41647965 0.41893643 0.5776549 0.5646486 0.16741782 0.42275923 0.5232782 0.5016834 0.5029149 0.48018432 0.30668768 0.40787524 0.41415972 0.40643698 0.3835126 0.34669262 0.25334227 0.22189629 0.41231996 0.11805087 0.23922727 0.19584087 0.6741642 0.5153183 0.19925582 0.6985241 0.7157799 0.1333623 0.09716077 0.706792 0.6975726 0.06304318 0.10319461 0.6786029 0.23663299 0.640543 0.5640719 0.5194672 0.28770897 0.27610013 0.4562698 0.42914042 0.476897 0.50053877 0.68531454 0.46766794 0.46972027 0.61956984 0.75833106 0.9303374 0.5483432 0.6062553 1.0 0.96253294 0.7687441 0.90675086 0.980462 0.9698571 0.76004595 0.81192434 0.87057495 0.89488375 0.7629237 0.7947048 0.7292628 0.65982354 0.7027845 0.56838757 0.49103633 0.42360502 0.23094642 0.3922025 0.5008378 0.34394538 0.33943635 0.4313889 0.54665554 0.52686 0.5441205 0.5636636 0.5685537 0.5504095 0.5399952 0.5044723 0.43454525 0.47838616 0.3941185 0.41620094 0.39062876 0.46498707 0.49068832 -0.16852948 0.23983327 0.42599767 0.40211618 0.5655915 -0.04493612 0.41405147 0.4294307 0.4994947 0.56398827 0.4319072 0.47558016 0.49088752 0.5354612 0.36849982 0.4522078 0.2817982 0.2854691 0.40118438 0.26148686 0.4017334 0.3586044 0.031112261 0.2068421 0.26931268 0.37111145 0.2550676 0.23529021 0.28372395 0.23668453 0.6110441 0.46108055 0.3366315 0.22676912 0.1974221 0.7125754 0.6853761 0.61481297 0.27599958 0.15525007 0.71315944 0.7120902 0.38868934 0.3132596 0.2729167 0.6971774 0.69537127 0.63020927 0.42111066 0.35144687 0.27299368 0.32593417 0.30287683 0.6143321 0.84183824 0.6661218 0.70382524 0.8372779 0.76021016 0.82790756 0.9071952 0.88070667 0.7854388 0.70745707 0.7135769 0.7409953 0.6747421 0.5437273 0.4617011 0.57429296 0.436517 0.43709564 0.0682756 0.39199388 0.38381055 0.46954787 0.3873592 0.12067133 0.47784466 0.5195014 0.5542251 0.5056906 0.43153375 0.3277071 0.24447745 0.256793 0.26472485 0.39080673 0.44869092 0.35427132 0.50482255 0.36354235 0.43239605 0.39111152 0.45081517 0.43054828 0.34207037 0.40611622 0.49570352 0.4035027 0.3778543 0.40541705 0.4467225 0.42927307 0.333878 0.416776 0.36969894 -0.041152738 0.3330027 0.4800112 0.10528456 0.45983016 0.4406025 0.3771394 0.23528065 -0.13110346 0.3463267 0.235287 0.13699634 0.24610074 0.2274175 0.22068094 -0.029771939 0.08566029 0.26467672 0.26883817 0.21224609 0.32782072 0.3346731 0.41150308 0.39142984 0.46142107 0.4528597 0.50633776 0.45923173 0.5368661 0.39018556 0.29793113 0.120797954 0.2428518 0.41035128 0.007578519 0.2506702 0.4562874 0.35161602 0.34572285 0.47707066 0.43818146 0.31146097 0.35755098 0.6046493 0.61665833 0.3260161 -0.091380194 0.6103802 0.6402041 0.6321478 0.22738442 0.2799978 0.64407176 0.6501078 0.64752835 0.627648 0.22906128 0.25232464 0.16910887 0.6526711 0.61572456 0.49860433 0.67542356 0.7106519 0.7433636 0.4238594 0.5096326 0.3295387 0.3676924 0.4555878 0.65855736 0.74401027 0.4345096 0.40040743 0.31887454 0.3134785 0.3972466 0.5733066 0.68713856 0.33338815 0.3704564 0.58700216 0.57510996 0.5500173 0.5682673 0.5844272 0.5346017 0.53827703 0.25019327 -0.13627326 -0.20945282 0.5797951 0.56737936 0.55099213 0.23050347 0.54096353 0.34690082 0.3482412 0.5579385 0.52188474 0.33534545 0.5794768 0.5936364 0.58737266 0.46116146 0.29060706 0.09634256 -0.10241227 0.532166 0.5770951 0.60881776 0.55291504 0.0057634115 0.049967103 0.5768199 0.63418967 0.68766475 0.7441408 0.20172927 0.17343462 0.19587997 0.38093814 0.6793134 0.75822437 0.7889211 0.20134804 0.20132592 0.23725791 0.25502968 0.49133754 0.79340434 0.42162216 0.5226813 0.58624923 0.7418127 0.36775407 0.36297247 0.30967563 0.31206617 0.39040548 0.35692063 0.3500415 0.8539357 0.88493705 0.8947035 0.885131 0.778919 0.8816274 0.93330353 0.9162482 0.79553676 0.89692783 0.9487343 0.95108294 0.59343344 0.5819826 0.59794664 0.5868097 0.5517278 0.5334003 -0.09547758 0.13443078 0.22060052 0.3887825 0.15837702 0.20834628 0.63674194 0.60186476 0.092865765 0.66001654 -0.47358817 0.59462893 -0.121184565 0.5945681 0.5767443 0.31434208 0.56666046 0.57899284 0.5526314 0.49173602 0.45491162 0.5589328 0.53281456 0.42777458 0.27837944 0.6378551 0.5863404 0.36935914 0.7318411 0.78417253 0.17176493 0.15669212 0.33486363 0.81042504 0.81918406 0.15828997 0.15151629 0.14150469 0.18668562 0.29999417 0.32489634 0.33497152 0.27582702 0.8060318 0.8261925 0.34436283 0.7612338 0.32615563 0.2825379 0.24082208 0.8168597 0.544606 0.855994 0.8131031 0.5580988 0.8994807 0.8840958 0.70946926 0.79977095 0.9494705 0.93555 0.90276873 0.8155495 0.9001899 0.6066485 0.60001934 0.5934599 0.5628724 0.59480315 0.20650472 0.39400294 -0.07372257 0.22601065 0.28983974 0.4961564 0.398701 0.2745104 0.32186595 0.7151072 0.6489182 0.5586944 0.43575007 0.21071865 0.7185323 0.7442983 0.72494614 0.73290336 0.6744777 0.61608565 0.5203305 0.57452536 0.41241932 0.710069 0.6996982 0.65933305 0.48588568 0.42742336 0.38685367 0.5480411 0.5098977 0.48244172 0.3460787 0.2269662 0.6782932 0.36942923 0.43616614 0.58879155 0.6755886 0.7350585 0.7703824 0.34188 0.4829506 0.7912572 0.8108537 0.068273544 0.35808432 0.3463933 0.32745403 0.82923406 0.3681417 0.3617565 0.29516935 0.26719296 0.2403818 0.1748274 0.18428335 0.21233453 0.19018975 0.22735386 0.34653562 0.763853 0.8026031 0.4002377 0.84279805 0.49100065 0.60301614 0.8771033 0.86374414 0.6711866 0.76770496 0.8294723 0.82108885 0.28647715 0.3105174 0.15297702 0.28526172 0.3532658 0.39920136 -0.016489953 0.78396523 0.7695793 0.20521869 -0.06168534 0.46968192 0.782177 0.79250574 0.46102738 0.7827516 0.74320185 0.7929407 0.6417986 0.5839019 0.4696008 0.67841005 0.6077918 0.43572456 0.75693786 0.46480483 0.38307202 0.534063 0.5176718 0.4778636 0.48027635 0.70546424 0.6022119 0.7162723 0.46398342 0.5012307 0.6629255 0.75612605 0.39257413 0.4035983 0.2810625 0.40842026 0.37663394 0.7342049 0.7889016 0.45175675 0.19049022 0.2876206 0.38242775 0.4198195 0.38379812 0.2869315 0.2664392 0.6046489 0.39760125 0.23729405 0.16124666 0.15843995 0.5191466 0.6460271 0.23373035 0.28578645 0.7159195 0.7630925 0.40532634 0.7915565 0.4675853 0.4990517 0.7436525 0.79197705 0.83064026 0.5686335 0.6929628 0.75666714 0.78334093 0.25325504 0.32824463 0.43196625 0.10484694 0.47548795 -0.21243402 0.46184522 0.59380984 0.8548792 0.849717 0.6462805 0.344288 0.6132457 0.8306936 0.85423005 0.45819563 0.81903386 0.83446836 0.7910951 0.8000822 0.3743828 0.75922775 0.68819296 0.565718 0.75746274 0.64864206 0.5818757 0.37603784 -0.20901251 0.7982401 0.469777 0.40986848 0.7312981 0.44199187 0.5880724 0.49388838 0.65120465 0.4949692 0.4359867 0.5194336 0.50187755 0.4108271 0.26594672 0.43207505 0.34631455 0.49042857 0.22689837 0.40048495 0.20404904 0.23297386 0.08788648 0.35497612 0.2530267 0.29266727 0.72476923 0.76555985 0.34104747 0.78302217 0.79396963 0.4395231 0.49094218 0.62551165 0.7003857 0.766155 0.7102506 0.5388801 0.29465318 0.37946177 0.38862464 0.4712577 0.51956964 0.5815699 0.21565293 0.5285226 0.6007956 0.35192028 0.023134302 0.6547885 0.726947 0.89141816 0.86726713 0.2823617 0.6710086 0.89224553 0.9057095 0.84757423 0.50915587 0.8715383 0.8847542 -0.12843885 0.8305628 0.80405545 0.6382923 0.5376587 0.06502614 0.41322517 0.76447344 0.65848696 0.4223736 0.7682971 0.7049493 0.67042625 0.073596366 0.7639828 0.11959051 0.27618366 0.35941997 0.5346254 0.16715549 0.39699918 0.289595 0.53829193 0.5182473 0.4537099 0.40110844 0.26944438 0.49813563 0.07401675 0.19367738 0.5997141 0.25523257 0.27994427 0.7112403 0.32399756 0.38017654 0.5732598 0.667444 0.7299838 0.44791007 0.4596961 0.5337119 0.5971285 0.6875982 0.7380607 0.4028015 0.5522052 0.6277914 0.68004906 0.6051115 0.6810541 0.43162346 0.34900925 0.70914114 0.73414946 -0.13628323 0.7388458 0.73606354 0.74051404 0.7131162 0.86980844 0.8429995 -0.1105999 0.42330122 -0.031587668 0.38941512 0.34305698 0.70256245 0.18226396 0.54927933 0.19895712 0.39843345 0.36747175 0.20665893 0.19573627 0.56420183 0.5496235 0.52590215 0.26289862 0.1785401 0.35128453 0.18714538 0.1867187 0.3217702 0.4771021 0.43028545 0.2208409 0.21353629 0.26787722 0.389387 0.14107376 0.4039473 0.4101406 0.19796684 0.25060266 0.4155989 0.60801667 0.30392087 0.34199804 0.44214082 0.437479 0.5641911 0.49691966 0.5148638 0.6707134 0.75997853 0.75770235 0.75887674 0.30331516 0.31767336 0.7532387 0.5101619 0.48867977 0.16874471 0.7136221 0.7176713 0.53487843 0.31663662 0.04393112 0.68366414 0.6118827 0.6863704 0.7048581 0.5323157 0.30209985 0.13229094 0.24708961 0.27984208 0.44477808 0.4847922 0.5072695 0.46978554 0.41410315 0.45069078 0.46918914 0.4183309 0.12442919 0.43672812 0.4780352 0.45014894 0.53571415 0.35679904 0.54551566 0.5904542 0.60789853 0.29007673 0.33782834 0.29082513 0.20152113 0.3225844 0.606645 0.5855623 0.5130491 0.23098028 0.17555605 0.1759597 0.39029464 0.546446 0.18581448 0.31062555 0.3256327 0.318727 0.3066893 0.22394376 0.41560018 0.40594238 0.35014182 0.3291851 0.26930338 0.41749454 0.31449503 0.35885966 0.36868346 0.403741 0.3665041 0.39282727 0.53749406 0.6399981 0.77569664 0.7945075 0.78463185 0.1965153 0.75735396 0.61002624 0.5699469 0.5408529 0.45542678 0.15411183 0.68743455 0.6834773 0.5872606 0.47316203 0.6337509 0.66108525 0.69804955 0.6166049 0.17626108 0.5837749 -0.02415127 0.037648898 0.30400357 0.24475157 0.18100786 0.23463362 0.20330447 0.5831957 0.5919636 0.51426524 0.49753922 0.5006045 0.48675632 0.0031934828 0.41386664 0.58352005 0.61468077 0.24083 0.25991756 0.3050723 0.34023198 0.6044325 0.5776032 0.5662514 0.25171408 0.27253893 0.2913578 0.19285533 0.34634155 0.28992462 0.31209025 0.