# vtk DataFile Version 2.0
Really cool data
ASCII
DATASET POLYDATA
POINTS 4111 float
-15.593686 1.9950184 -3.0458658
-15.64736 1.7796427 -2.571056
-15.639925 2.1838007 -0.85875404
-15.643948 2.2238748 -3.0373316
-15.717026 2.4630656 -2.3627791
-15.738505 2.5606742 -1.4025366
-15.659253 2.5745895 -0.69199264
-15.635055 2.9868383 -2.4061835
-15.641258 3.2235322 -1.3486457
-15.646661 3.170269 -0.75027555
-15.599381 10.16438 -3.6004035
-15.696255 10.7060585 -4.204441
-15.705032 10.62607 -3.4693468
-15.627752 10.618881 -3.1116066
-15.670553 11.123334 -4.167259
-15.678609 11.235289 -3.616876
-15.655903 11.248478 -3.1178172
-14.878282 1.1838783 -3.1853337
-15.108117 1.1711142 -2.6060712
-15.042317 1.2986157 -1.5595148
-14.978824 1.9840691 -3.8217478
-15.282787 1.6857493 -3.3772578
-15.436578 1.4950541 -2.5341556
-15.396344 1.6169636 -1.5266788
-15.269242 1.8436837 -0.5487758
-15.1340475 2.169912 -0.09632397
-15.07787 2.239901 -3.7164786
-15.3977 2.3699758 -3.3879666
-15.495314 2.4655066 -0.34804183
-15.329347 2.531424 -0.08963987
-14.818704 2.8708818 -3.6972811
-15.126083 3.0118256 -3.2832572
-15.413566 3.1694615 -2.6174061
-15.460572 3.4584205 -1.5346717
-15.421187 3.3504584 -0.4653862
-15.288045 3.053384 -0.044951558
-14.989736 3.7655208 -1.9111905
-15.144618 3.7888207 -0.81021535
-14.838695 9.034379 -5.504829
-14.855303 8.905565 -4.6460214
-14.944901 9.100685 -3.914478
-14.742381 9.579724 -5.8617735
-15.005547 9.512728 -5.4045587
-15.256961 9.600635 -4.518371
-15.368949 9.774441 -3.6284256
-15.040688 9.827899 -2.875403
-14.732534 10.048914 -5.81875
-15.156708 10.428272 -5.1543894
-15.427839 10.245803 -4.6850233
-15.422638 10.4173355 -2.8485494
-14.99577 10.622398 -2.238129
-15.208504 11.17953 -4.752181
-15.4124565 11.293496 -4.4522862
-15.502449 11.548132 -3.5648954
-15.302135 11.347833 -2.6710835
-14.716742 11.903681 1.0054622
-14.770438 11.684273 1.2238628
-14.767885 11.805361 2.2542236
-15.099386 11.764016 -4.170785
-15.233882 11.810406 -3.712671
-15.134165 11.9402075 -3.057626
-14.598121 12.837841 0.92124456
-14.893489 12.5085 1.8486379
-14.844628 12.604956 2.4537835
-14.674099 12.547571 2.9327116
-14.760399 13.015078 1.7401671
-14.716142 13.071174 2.459041
-14.627229 12.951179 2.8597276
-14.263066 1.2869749 -3.6967905
-14.506285 1.0560983 -3.3279848
-14.698005 1.0185937 -1.6898232
-14.33026 1.3021814 -0.50338125
-14.459368 1.6147128 -3.8754313
-14.348932 2.0244622 0.28501078
-14.445651 2.361433 -4.000918
-14.340125 2.460386 0.51670104
-14.77018 2.807647 -3.7545724
-14.404217 3.2554502 -3.5565505
-14.725979 3.0582776 0.31589
-13.807439 3.1495683 0.70168823
-14.278295 4.0275793 -2.6163316
-14.121534 4.2477794 -1.5594192
-14.266725 4.204789 -0.8114985
-14.135708 4.023466 0.0065668225
-13.957015 8.215929 -5.4795394
-14.096104 8.313621 -4.446294
-14.1990385 8.873839 -6.068304
-14.498828 8.599872 -5.378849
-14.526763 8.608787 -4.490695
-14.513462 8.946352 -3.371072
-14.314695 9.430922 -6.176193
-14.616273 9.819853 -2.358443
-14.366159 10.205072 -5.9268947
-14.628297 10.593551 -5.642925
-14.622212 10.365262 -2.0595984
-14.024956 10.815839 1.0227823
-14.052349 10.812226 1.579511
-14.353188 11.211603 2.2085156
-14.46441 11.1170845 -5.226229
-14.403912 11.805889 0.5281763
-14.5200815 11.292725 1.5064135
-14.490625 11.423662 2.3731418
-14.26173 11.878105 3.2171962
-14.229321 12.031237 -4.207007
-14.363986 12.188853 -3.4969082
-14.442805 12.198763 -2.7886465
-14.180554 11.727234 -1.8771749
-14.467154 12.044635 0.523314
-14.430428 12.484261 3.2203689
-13.812728 12.722954 3.6667376
-13.677943 13.041422 -0.11700213
-14.064023 13.468195 0.5724418
-14.4732275 13.584387 1.5140003
-14.438508 13.443712 2.5081823
-14.276641 13.21947 3.0223382
-13.736045 14.023997 0.59106225
-14.188721 13.783611 2.3680463
-14.065019 13.74308 2.788075
-12.636455 -3.064062 -1.4418414
-12.848094 -3.0331907 -0.09343204
-12.724385 -3.2189271 0.37647563
-12.597814 -3.097326 1.0882477
-12.800428 -2.4605477 -1.2266412
-12.859083 -2.3036432 -0.84348446
-12.760471 -2.636176 0.5637189
-12.627015 -2.7318406 1.0877726
-12.733367 -1.1604186 -2.0480886
-12.697746 -2.0545175 0.5577962
-13.260307 0.2407188 -2.6013129
-12.720734 -0.50110215 -1.7444319
-12.961595 -0.042302996 -0.6136066
-12.794335 0.101651 -0.2024256
-13.463562 1.1626431 -3.9111516
-13.766142 0.9025748 -3.421897
-13.152203 0.6002238 -0.6496316
-13.122908 1.9913768 -4.533455
-13.21679 1.6518114 -4.272383
-13.737392 1.4830248 0.13704675
-13.379064 2.2501202 -4.3569613
-13.348848 2.6581485 0.9124521
-13.275093 3.1416397 -4.0717697
-13.3004265 3.5339017 0.8104191
-13.48988 3.7418408 -3.3447227
-13.361287 4.3073573 -2.3960116
-13.646114 4.411543 -0.7311163
-12.864144 3.838172 0.95368755
-13.07259 4.566552 -1.3796273
-12.982071 4.5246134 -0.7629112
-12.548987 5.987665 2.8857229
-12.573179 6.173623 3.2450302
-12.755301 6.62297 2.8972633
-12.647231 6.6048446 3.5505276
-13.623173 8.057133 -5.3304944
-13.547712 8.727369 -6.220368
-13.651708 9.054035 -2.4504693
-13.592603 9.449182 -6.3715067
-13.181597 10.218999 1.1806283
-13.10631 10.008015 1.9665108
-13.400867 10.318459 2.244678
-13.584247 10.215289 -6.0913196
-13.237693 10.860864 -0.9756962
-13.20652 10.622988 3.314979
-13.558644 11.307946 -5.077053
-13.566011 11.441054 3.4905124
-13.318021 11.63801 3.8215103
-13.574918 11.859974 -4.4242296
-13.945988 12.353735 -3.43828
-13.46814 12.5859165 3.6891313
-12.850046 13.289583 -1.2298069
-13.331962 13.214057 -0.29022807
-13.50714 13.381702 3.3957593
-13.29935 14.349099 0.42706913
-13.608221 14.425337 1.3740594
-13.410262 14.341686 2.2706482
-13.338608 13.936099 2.9108794
-13.100491 14.62009 0.6214988
-13.102699 14.701541 2.0205073
-11.684468 -5.10877 -4.5429077
-11.647185 -5.068119 -3.2252898
-11.805486 -4.792802 -0.909258
-11.798006 -4.501364 -5.063466
-11.903772 -4.465444 -4.7132564
-11.843876 -4.661899 -3.5416844
-11.930402 -4.5430694 -1.1546434
-12.196058 -4.1610575 -0.3388188
-12.10332 -4.160761 0.39199686
-12.0592575 -3.9463766 1.0871122
-11.863404 -3.720328 -4.8058205
-12.11161 -3.4451237 -4.14256
-12.205416 -3.885515 -3.8334286
-12.451393 -3.2965798 -2.187253
-12.228824 -3.6428757 -1.8779656
-12.532687 -3.5300913 -0.33245075
-12.419363 -3.682595 0.64654994
-12.272426 -3.310657 1.3578092
-11.975564 -3.1668558 1.7260734
-12.107841 -2.133872 -4.4014816
-12.4198265 -2.6325555 1.3960651
-11.951217 -2.6819706 1.788857
-12.025385 -1.769753 -4.2017317
-12.379258 -1.4186038 -3.052118
-11.911814 -1.9832542 1.7188137
-11.923843 -1.1255908 -3.9997952
-12.302074 -0.69261914 0.42549345
-11.880449 -0.6325296 0.9746591
-12.33758 1.0539844 -4.006203
-12.585452 1.9848943 -4.508524
-12.524048 1.9050021 -4.46048
-11.734723 1.716239 1.6958733
-12.849999 2.7056577 -4.3814435
-12.068039 2.6997228 1.3517846
-12.762896 2.9143145 -4.286979
-12.312638 3.2998843 1.412246
-12.2344675 3.221038 1.6416378
-12.7293005 4.0695105 -2.861784
-12.375824 4.313864 -2.5746508
-11.954531 4.454931 0.12493272
-11.807853 4.9503837 3.5251088
-12.069645 5.9328384 2.1337888
-12.392409 5.8745813 2.67403
-12.383617 5.8255157 3.3999662
-11.921998 5.8460717 4.2076693
-12.169717 6.5737247 4.3113813
-11.854368 6.6183033 4.6642375
-12.4948015 8.2500515 -5.9154644
-12.558678 7.9533553 -5.4401603
-12.419749 7.717802 -4.6721683
-12.613616 7.8718762 -3.3238852
-11.812466 7.554353 1.0473669
-12.160944 7.10196 1.5572019
-12.5281725 7.4658384 3.7394068
-12.446808 7.1874123 4.0167828
-12.562536 8.973905 -6.2524357
-12.329928 8.425719 -1.9919764
-12.016682 8.92613 1.5712858
-12.296376 8.592927 3.127911
-12.062088 8.753458 3.8420925
-12.704179 9.492282 -6.270738
-12.783491 10.299838 -6.017505
-12.727377 10.920476 0.06036541
-12.662471 11.111737 4.0684
-12.79495 11.511467 -4.3457656
-11.694829 11.644657 6.3296604
-11.589506 11.85952 6.9743404
-12.958863 11.848197 -4.366685
-12.507639 12.145105 -2.6801205
-11.754672 12.482945 6.5107675
-11.627012 12.445594 7.0770617
-11.802571 12.97556 -2.7555761
-12.430129 13.534033 -1.9202195
-12.028963 13.501965 3.695591
-11.638473 12.854937 6.5651655
-12.16744 13.85439 -1.9360627
-12.325136 13.776501 3.3888931
-12.41065 15.103516 1.344191
-12.439597 14.905894 2.0976915
-10.668041 -10.389204 -4.36837
-10.740043 -10.166363 -3.7139344
-10.6541 -10.036432 -3.1305513
-10.614018 -9.725269 -4.85896
-10.801465 -9.497333 -4.390026
-10.736807 -9.843939 -3.2501566
-10.600516 -9.560989 -3.1615782
-10.746458 -9.05517 -4.45653
-10.724226 -8.851804 -3.9145508
-11.02478 -5.7384467 -4.512769
-10.979249 -5.680184 -0.7563839
-10.916295 -5.1913447 -7.111556
-11.127765 -5.079997 -6.4827943
-11.313651 -5.168534 -5.548807
-11.086755 -5.4096484 -2.490192
-11.393025 -5.4743676 -1.4369186
-11.23045 -5.4682508 -0.7165886
-11.178575 -5.0382204 0.51300347
-11.210805 -4.862405 0.93868244
-10.990209 -4.4957976 -7.2271414
-11.303928 -4.5701566 -6.492255
-11.238932 -4.4570227 1.4239696
-11.069971 -4.0193887 1.8952366
-10.871047 -3.8384285 -7.2670794
-11.237673 -3.913085 -6.3906827
-11.369759 -3.422766 -5.4415874
-11.31435 -3.3870955 1.9366577
-11.131805 -3.1496613 -5.8806696
-11.349813 -2.3153822 -5.27469
-11.420565 -2.454046 2.041796
-11.071987 -1.9815569 -5.161573
-11.287273 -1.778118 1.9533972
-11.510591 -0.06332928 0.97954714
-12.072367 1.1461474 -4.027858
-11.245872 0.6703901 1.3506979
-11.800848 1.8861171 -4.374483
-11.387141 1.3051155 1.7377286
-10.906381 2.8325136 2.7795353
-11.867335 2.9586112 -4.3293858
-11.556918 3.3443825 1.8540906
-11.225613 3.6686122 2.8098407
-11.235416 4.157937 -3.0031347
-11.242298 4.4927435 -2.2781842
-11.580487 4.624459 3.4060278
-11.27288 4.8943453 4.0749702
-10.909425 4.6879754 -1.9889474
-11.70634 4.7535706 -0.95913315
-11.185261 5.4637365 0.8269892
-11.604181 5.74279 4.4433093
-11.160891 5.6564765 4.7394633
-11.479554 7.2626133 -3.987514
-11.029246 7.097939 -3.4327796
-11.067236 7.213276 -2.799361
-11.261074 6.434341 4.9198303
-11.476342 7.747807 -4.9660807
-10.860652 7.368994 0.04417771
-11.420333 7.5598288 5.007043
-11.555706 9.0325575 -5.87824
-11.552917 8.376327 -5.470199
-11.15822 8.036368 4.868985
[...]
POINT_DATA 4111
SCALARS features_00 float 1
LOOKUP_TABLE default
0.7809851 0.7827083 0.72811997 0.7821413 0.79232144 0.7698784 0.7415359 0.7878401 0.77723956 0.755424 0.7330298 0.77442896 0.75375164 0.7383982 0.78066516 0.779443 0.7687191 0.72336936 0.7334482 0.6683371 0.7373806 0.76008356 0.7675278 0.725316 0.6619468 0.65898037 0.7497802 0.77128285 0.71497524 0.6949417 0.72717446 0.7544184 0.7777959 0.782318 0.7488059 0.7110902 0.76632786 0.7773814 0.77640617 0.7233915 0.6796505 0.7827852 0.76835954 0.74262244 0.7074081 0.64337534 0.76717675 0.76827025 0.76871544 0.7061628 0.6722692 0.7772263 0.78002155 0.7823553 0.76279426 0.67131793 0.6644264 0.70564187 0.76857996 0.77625394 0.7814319 0.67185557 0.715098 0.7037528 0.6856284 0.69626385 0.6789138 0.6705047 0.66571015 0.68422294 0.61120915 0.4916364 0.6907253 0.5460429 0.69155526 0.5651983 0.7225816 0.7032501 0.66130555 0.50874776 0.66816235 0.60818225 0.6950282 0.72923625 0.78887236 0.66483295 0.8182413 0.7744798 0.6954863 0.6000062 0.79739994 0.5603732 0.75621855 0.7486437 0.58900815 0.4594745 0.51771444 0.63469005 0.75303483 0.60013855 0.6158935 0.67256427 0.6790026 0.694394 0.70678276 0.7366909 0.70789176 0.631118 0.67350495 0.6315181 0.48128858 0.5796367 0.6566089 0.64681816 0.63799405 0.5537597 0.62238026 0.6035396 0.28803986 0.41495463 0.46494442 0.5219213 0.2769851 0.306468 0.46356592 0.5083383 0.16702425 0.44575343 0.39070258 0.19719844 0.18944193 0.15472661 0.56789404 0.5824796 0.22416878 0.54221964 0.5557316 0.37423658 0.5798688 0.32852536 0.5949528 0.44709423 0.6133506 0.45197976 0.5495289 0.37005466 0.39981747 0.41967475 0.46277386 0.47389406 0.46368575 0.4814924 0.7618346 0.82328457 0.43965426 0.8032838 0.28458327 0.329274 0.47209597 0.7577379 0.117325574 0.48999554 0.69041 0.61625636 0.5743036 0.593759 0.5881239 0.6181173 0.11845749 0.43258876 0.5696744 0.50852716 0.5901574 0.5506209 0.52022135 0.5203891 0.5275277 0.3290167 0.32466108 0.41768125 0.31924242 0.327237 0.33693555 0.37585562 0.42952853 0.5059882 0.5633911 0.29879257 0.30293733 0.32875925 0.24930826 0.2811249 0.40671432 0.5066432 0.5542586 0.57512534 0.22145471 0.52519566 0.55690944 0.22828613 0.21247566 0.51532197 0.16592488 0.27103096 0.29001272 0.44236222 0.47339866 0.46800405 0.010721072 0.50351936 0.058494017 0.4938566 0.1420346 0.07274994 0.4047171 0.31319967 0.37751463 0.31980583 0.37356597 0.4434256 0.45583135 0.42473 0.466362 0.45201784 0.6167391 0.58083445 0.47345877 0.45078823 0.16511752 0.27971226 0.48455635 0.48745203 0.6617606 0.36507142 0.16849405 0.3849878 0.35077414 0.6936564 0.70066273 0.22116879 0.2685693 0.44949478 0.5640776 0.6322915 0.4741726 0.089699306 0.6705251 0.67117614 -0.16190833 -0.11106107 0.30775416 0.6776043 -0.047055878 0.37791857 0.44347304 0.441881 0.7395406 0.7613343 0.7722456 0.61570144 0.6831409 0.75545084 0.73356587 0.64297175 0.6540158 0.3205121 0.4604001 0.26094577 0.28215173 0.30041984 0.3243982 0.38529295 0.46062154 0.56677645 0.6054541 0.25170296 0.2853774 0.63652384 0.64525294 0.25900283 0.26703063 0.26040533 0.6138672 0.20424518 0.16783033 0.5693532 0.11363897 0.53192496 0.1593084 0.40013644 0.030335344 0.3494748 -0.017740568 -0.0113132745 0.3077847 -0.015531842 -0.013384847 0.15389127 0.17390674 0.22928236 0.28676885 0.12964185 0.24514103 -0.123608306 0.40293866 0.38173914 0.30284637 0.23177455 0.25269514 0.41574734 0.3730553 -0.09404606 0.43759346 0.49015117 0.4669749 0.41853455 0.3839566 0.24732411 0.26579767 0.31244472 0.4835475 0.52790844 0.57338554 0.62054014 0.63391113 0.66509855 0.65331423 0.18226108 0.4443167 0.66053414 0.66254973 0.3702742 0.5292113 0.4469759 0.4140258 0.35068458 0.28016397 0.34759712 0.55876 0.4663198 0.3855288 0.1633579 0.15751633 0.40863717 0.3270641 0.7366499 0.60127336 0.5234075 0.29796487 0.22996327 0.4247314 0.5068934 0.5494198 0.86365616 0.8395349 0.7329269 0.5824053 0.5938761 0.88702166 0.8961569 0.8461065 0.9014629 0.6980775 0.79010665 0.8342031 0.81322896 0.65132475 0.7340679 0.8070242 0.7931222 0.753572 0.6295289 0.6092198 0.17814952 0.5371598 0.75531954 0.7322614 0.6269747 0.5950283 0.50503784 0.21090129 0.5609672 0.6758799 0.5494036 0.2803325 0.19967696 0.27553943 0.12662986 0.20078407 0.27803314 0.32490274 0.3968464 0.48561564 0.51951474 0.09129135 0.2228113 0.5854592 0.64016795 0.6607644 0.19849628 0.6641396 0.29642546 0.6418592 0.3021866 0.22351217 0.6069172 0.18033585 0.10129149 0.4816116 0.09826134 0.44651777 -0.10036424 -0.002826523 -0.011973036 0.10523778 0.099010825 0.050446272 0.121571064 0.104988895 -0.0029236628 0.0019225776 0.25327882 0.117204085 0.0125849545 0.16993132 0.261044 0.36230278 0.22154988 0.03355802 -0.04013081 0.38281178 0.3455423 0.051906392 0.3356246 0.3720312 0.10169629 0.12973146 0.36854887 0.5395077 0.63054836 0.42906517 0.39114112 0.3140834 0.22475612 0.14504713 0.58774656 0.6218501 0.5452849 0.44371915 0.37714046 0.31320855 0.2269092 0.08479099 0.40562513 0.52417 0.46223557 0.24051574 0.5274569 0.108931 0.4137302 0.6739971 0.37103677 0.53621006 0.79081047 0.5998641 0.64453423 0.62220824 0.57298094 0.8264058 0.8681333 0.8578311 0.7842823 0.88014746 0.8940593 0.8726437 0.7330783 0.78964305 0.6963757 0.7704154 0.794886 0.7813748 0.5883672 0.43224525 0.26097846 0.17074934 0.38293767 0.5731631 0.7454217 0.7262038 0.6553608 0.6410282 0.612551 0.4933442 0.17208144 0.6113262 0.6602844 0.64690846 0.626699 0.25317013 0.53733534 0.44365162 0.46155956 0.31016773 0.16612571 0.49778718 0.5963701 0.18348068 0.6386425 0.3173111 0.59744394 0.36632437 0.327909 0.28095633 0.4219376 0.2026679 0.10157478 0.06448883 0.18892486 0.03402017 0.043301962 0.003306128 0.033892494 0.2078979 0.27510297 0.470729 0.085145436 0.09504846 0.46931562 0.5482005 0.5610639 0.10061492 0.12820017 0.35538757 0.5380597 0.55857885 0.14907789 0.119411975 0.506983 0.11016866 -0.06424139 -0.175162 0.27433616 0.38888723 -0.34384057 0.31017268 0.31884685 -0.15986554 0.3272093 0.25411072 0.2151111 0.42868704 0.12961462 0.044040207 0.06024149 0.2966655 0.5296408 0.66466814 0.22978412 0.6341796 0.69282776 0.015189819 0.63425624 0.69898427 0.34269693 0.14794385 0.100566424 0.25732395 0.636549 0.4431339 0.4341141 0.3769525 0.4371882 0.44403726 0.043640554 0.2153694 0.345081 0.43390626 0.45153317 0.22110026 0.52636397 0.48380458 0.40909207 0.67762846 0.5524325 0.60319555 0.6570377 0.6049668 0.78012925 0.7904987 0.66466594 0.6653738 0.6937331 0.68465793 0.83113825 0.8425174 0.7876632 0.6923355 0.33685333 0.18112108 0.16070914 0.5772798 0.63940406 0.6771647 0.62540615 0.5776935 0.63452774 0.61354256 0.65753794 0.64526385 0.47366455 0.6509356 0.39173287 0.58639157 0.5066596 0.18207432 0.4325567 0.09253934 0.3940141 0.2891494 0.22075109 0.2296001 0.42289364 0.5346005 0.45959863 0.5238087 0.27863336 0.53908974 0.2931112 0.4917988 0.33664364 0.25231194 0.17636245 -0.18463032 0.09831792 -0.32904127 0.16600156 0.28189293 0.3080343 -0.0062716454 0.0068472326 0.28088588 0.41654038 0.49635345 0.52295595 0.06380201 0.5481521 0.5462504 0.069067985 0.5378235 0.5347496 0.20006299 0.10532668 0.45210254 0.45714206 0.4484498 0.33869243 0.28621987 0.31157547 0.41217098 0.12257903 0.56920505 0.345973 0.49174348 0.5754805 0.60534483 0.18181385 0.19198228 0.42770088 0.52126753 0.6189799 0.6400111 0.11678249 0.041655377 -0.011515055 -0.0043200403 0.64641374 0.67963845 0.71806145 0.16086206 0.24087831 0.6782348 0.721612 0.27711266 0.05687945 0.2234546 0.46210283 0.6626614 0.33837923 -0.3247549 0.014505049 0.045414977 0.25117967 0.41320956 -0.09104307 -0.07864327 -0.0014733598 0.23617505 0.3130945 0.26332712 0.4155682 0.314881 0.43971914 0.43856177 0.5743805 0.5644419 0.56027716 0.71971285 0.65081215 0.58495784 0.6725854 0.6843961 0.7654321 0.732765 0.6984543 0.3637367 0.29227233 0.4032184 0.31025726 0.24079654 0.1941607 0.31705773 0.43666574 0.58311284 0.5245191 0.5934117 0.53278965 0.50144047 0.5965282 0.3504126 0.60005695 0.4889056 0.18457693 0.36521775 0.21363384 0.076035865 0.21047461 0.21372907 0.07393463 0.39447522 0.19959135 0.3371381 0.3475952 0.11517621 0.2859642 0.6197603 -0.41135156 -0.38388044 -0.012806185 0.059551023 0.1363908 0.64051723 0.63229483 0.16363946 -0.09136331 0.222176 0.43754542 0.635133 0.63158655 0.58516777 0.5108079 0.6157156 0.5991613 0.5385921 0.07895735 0.48168242 0.26079875 0.26932952 0.30239534 0.32753232 0.30132917 0.3191722 0.502621 0.5761926 0.6149935 0.3382429 0.37134862 0.6207442 0.6251109 0.16780093 0.16964985 0.6388933 0.15670815 0.022855002 0.67458975 0.28224397 0.15030622 -0.121014014 -0.073402815 0.73024964 0.33695483 0.22515553 0.7072934 0.3420323 0.25997236 0.6251445 0.68018293 0.24633572 -0.113501996 -0.11385438 -0.044474833 0.06432998 0.17062065 0.4710285 0.51213235 0.34855437 -0.08999213 0.14431864 0.26392418 0.19751121 0.32889766 0.26038602 0.30870563 0.18633848 0.35697243 0.3491287 0.18355426 0.39165652 0.56680745 0.5560172 0.5954794 0.65201104 0.64859515 0.64678013 0.5850265 0.6743301 0.6734112 0.52674675 0.5638401 0.546584 0.4972389 0.93178594 0.43624288 0.49882603 0.47224998 0.41603106 0.94299245 0.9249325 0.8992087 0.9105642 0.8912469 0.4320771 0.3397988 0.33602214 0.4909588 0.29483542 0.44793844 0.73030114 0.72298956 0.7116078 0.120632395 0.72149146 0.726828 0.71771574 0.3106601 0.28508353 0.0018999763 0.650838 0.6902037 0.6947572 0.2488437 -0.030160002 0.07089763 0.068005145 0.018795863 0.16398597 0.58439326 0.20171128 0.57330394 0.18456215 0.186228 0.6403471 0.60803086 0.5194454 -0.13422649 -0.05290062 -0.010069679 0.6433469 0.64310926 0.2989969 0.0126218945 0.62824017 0.6312139 0.3134533 0.047349997 0.6029529 0.5533537 0.5416092 0.45629197 0.14207354 0.15038861 0.266875 0.1227304 0.5297387 0.18063773 0.6058126 0.55657005 0.17776625 0.5647379 0.33503097 0.2677915 0.635933 0.37769264 0.342628 0.61566603 0.40281904 0.37800092 0.6001165 0.39620584 0.36448467 0.55678755 0.61934364 0.3097187 -0.15177771 -0.042617716 0.10110265 -0.2116412 0.23768058 0.27057588 0.17094915 0.05616726 0.16383958 -0.027713925 0.14775072 0.0833846 -0.07581348 0.00937761 0.42325437 0.3204655 0.41023567 0.5229456 0.49926418 0.38116026 0.59544486 0.8566375 0.58668387 0.64156234 0.6291324 0.49162722 0.9341575 0.93112445 0.9063338 0.86592096 0.46688795 0.424897 0.3853951 0.9555687 0.95282197 0.88301325 0.79554373 0.15096341 0.9415394 0.93890846 0.86047184 0.803432 0.28411442 0.8848163 0.82575667 0.7593453 0.22564995 0.07433877 0.08862884 0.6959329 0.6921071 0.060369197 0.7279699 0.71292233 0.7044389 0.68613213 0.3269775 0.09816539 0.61568844 0.68747634 0.70227265 0.6761974 0.3614679 -0.050293397 0.5501056 0.6019487 0.36205393 0.30208945 -0.20506333 -0.016862769 0.14761113 0.439371 0.38178182 0.5639727 0.06793343 0.15295711 0.22005807 0.16841125 0.53521794 0.6109387 0.629581 -0.14030737 0.16926982 0.50138026 0.645748 0.65257955 -0.08250224 0.1871846 0.30773544 0.45440936 0.5312439 0.62200767 0.6284209 0.026019841 0.18620497 0.104939975 0.058594406 0.0273383 0.42025018 0.55129135 0.56614697 0.71829045 0.6520821 0.22337519 0.16979095 0.18181024 0.104672745 0.08641589 0.038901757 0.02603212 0.009776987 0.38207108 0.44424215 0.70804596 0.70199287 0.14528221 0.12949292 -0.08494539 -0.021893103 -0.0032099206 0.033042915 0.048784234 0.07192211 0.6550368 0.08284476 0.10834534 0.61122584 0.60191214 0.5656259 0.57113266 0.16271323 0.17134377 0.4345246 0.017448371 0.13506976 0.27893132 0.157684 -0.027157627 0.16920842 0.025055155 -0.0024037957 0.16287878 0.03777808 0.4717589 0.5156661 0.08339863 0.4950689 0.33296448 0.41828084 0.39648414 0.4714077 0.41027772 0.4123826 0.47680277 0.394118 0.4082938 0.5077493 0.35860074 0.3326649 -0.41596246 -0.033418015 0.30918264 0.27360547 -0.29968533 0.05281952 0.06982943 0.12572376 0.04125253 0.09426043 0.15634483 0.29734117 0.026159748 -0.021148935 0.19602276 0.045304447 0.1746283 0.10459722 0.033857062 0.2737049 0.34964126 0.3014887 0.77227736 0.85490346 0.8413984 0.8048732 0.9391472 0.92789245 0.83696157 0.8173374 0.7611481 0.53688025 0.57908535 0.63540936 0.6421964 0.53831637 0.8672104 0.88039 0.93463504 0.90070426 0.8328371 0.8544628 0.7804793 0.74148476 0.47798973 0.31714198 0.70743185 0.6420305 0.9178853 0.74941444 0.6901024 0.41319168 -0.031609297 0.9029201 0.70456153 0.38011187 0.80781776 0.7687944 0.6742737 0.3283866 0.5847988 0.6324177 0.53366524 0.7096431 0.68463564 0.6772189 0.33146614 0.35594285 -0.07279802 0.6023913 0.66306424 0.39025337 -0.05250676 0.40088138 0.36672622 0.4122594 0.4186777 0.054342933 0.12804696 0.15550613 0.18681082 0.29737413 0.15829219 0.0962364 0.112684645 0.066691734 0.050318185 0.07954838 0.5489634 0.56689894 -0.15096396 0.1350258 0.0928909 0.07791543 0.07982093 0.066171825 -0.0019338122 0.60931957 0.5704019 -0.13096945 0.0567554 0.13694157 0.1608819 0.119901836 0.08554285 0.057982825 0.061577722 0.053203724 0.58916664 0.0764653 0.12640063 0.17683506 0.041642517 0.02251396 0.037657484 0.2840972 0.5519401 0.57441515 0.7702414 0.7809298 0.7661434 0.15738495 0.0015210919 0.08779525 0.25446248 0.33969778 0.48995003 0.51047635 0.75358677 -0.004310962 0.092281215 0.21926184 0.35216042 0.7216165 0.08777414 0.057665512 0.59625083 0.12075948 0.028400779 0.5104636 0.15469533 0.39395654 0.19965947 0.25791875 0.32062137 0.2539273 0.36088088 0.31808907 0.31038857 0.38892895 0.34357518 0.301471 0.33607426 0.3673035 0.36919308 0.3399342 0.32927057 0.2836317 -0.2430526 -0.219089 -0.04336512 0.50680614 0.18439877 -0.0009184703 0.06438937 0.10301609 0.20557779 0.2974906 0.46455884 0.48498994 0.14135127 -0.24547386 0.22145 0.33638808 0.43696147 0.49616373 0.19813375 0.29461074 0.30504555 0.2785676 0.24402218 0.30144244 0.3140965 0.64652896 0.751457 0.7489681 0.65692997 0.7194969 0.764873 0.79242426 0.78184247 0.5796922 0.8641046 0.7250068 0.7174527 0.709067 0.43967265 0.50151736 0.55820966 0.27525988 0.7794724 0.74916893 0.6481515 0.693509 0.6662047 0.46296617 0.43687326 0.112966806 0.15021111 0.6223805 0.73698825 0.63619107 0.48773235 0.030563682 0.55694574 0.38303274 0.77482486 0.57731766 0.45476055 0.6876085 0.40614864 0.39818323 -0.1579653 -0.33942178 0.5512794 0.55468607 0.46627185 0.68661433 0.6670741 0.40218708 0.4118241 -0.1389222 -0.1073033 0.840382 0.63920635 0.42913544 0.45795178 -0.095806725 0.048121598 -0.16849796 0.4358997 0.5783938 0.48595458 -0.06821876 0.14170249 0.2849418 0.46579397 0.38894087 -0.22156161 0.03961303 0.10005993 0.3270265 -0.2628098 0.070201464 0.4742874 -0.07199289 -0.08848497 -0.020526528 0.5285275 -0.14225982 0.09992655 0.094687596 0.57045084 0.5533615 -0.011339327 -0.10743701 -0.09738059 0.7642043 0.73764145 0.7730168 0.7262131 -0.19432262 0.50331104 0.72958297 -0.073736936 -0.103586435 -0.07937574 0.10827057 0.32326773 0.6906894 -0.046248697 0.025743276 0.14878999 0.59402883 0.5267668 -0.018321685 0.16034496 0.19290839 0.44166547 0.067477144 0.2964227 0.19747086 0.241148 -0.006493345 0.14560473 0.21495019 0.20846468 0.1708594 0.1446062 0.25761887 0.13769472 0.23015316 -0.09064154 0.26909003 0.27586883 0.25226614 -0.010400832 0.3064577 0.18856314 0.39815468 0.17874646 0.6102936 0.08230382 -0.12368737 -0.0882528 0.65393865 0.70161545 0.08541409 0.13840902 0.35669762 0.4699636 0.5959773 0.6826048 0.71581185 0.2822884 0.3477322 0.37547827 -0.039592758 0.18102539 0.16947067 0.021310844 0.5296058 0.3366845 0.29521427 0.24093574 0.45769113 0.46567762 0.52476776 0.59924984 0.46249092 0.51210165 0.58959866 0.6382477 0.7335559 0.45419014 0.54045343 0.61979175 0.73940855 0.8471701 0.93020344 0.56370527 0.63176847 0.8227152 0.9233272 0.97579145 0.80674684 0.88954353 0.9635575 0.9969301 0.9634461 0.6566696 0.7072619 0.7089555 0.5692941 0.66331756 0.71520317 0.72260904 0.33489665 0.49521634 0.7816826 0.6441852 0.674412 0.6689093 0.40525383 0.38682118 0.36728156 0.27354673 0.26701623 0.59009236 0.6115557 0.633559 0.650953 0.5852549 0.43186888 0.3975172 0.39241815 0.45504844 0.5413114 0.4767046 0.5787837 0.4803409 0.4544077 0.20230523 0.18792464 0.5705639 0.46590054 -0.0038156584 0.51196325 0.4363013 -0.31977 0.6538594 0.6627428 0.42941463 0.44624704 0.17005557 0.027647443 0.17708856 0.646919 0.47195086 0.21403497 0.21025005 0.027137088 0.03956064 0.027398665 -0.08120348 -0.4062823 0.6160617 0.49758768 0.03753785 0.19303507 0.015514765 0.03650668 0.4677708 -0.5630514 -0.005119659 0.015194201 0.01735359 -0.5375677 -0.5060331 -0.0028455146 0.47073883 0.12347599 -0.12163822 -0.19808617 -0.049280543 -0.13790464 0.5196947 0.5605125 0.10674871 -0.2648001 -0.043232523 0.60549974 0.10683547 0.63631845 0.68587434 0.6437429 0.6053028 0.62391186 0.6845709 0.6599897 0.635689 -0.27027756 0.35566622 0.51729476 0.65958214 0.6001339 0.48911196 0.18834977 0.22748579 0.3474576 0.28758186 0.17925882 0.22855833 0.28987667 0.2856938 0.17712343 0.26816118 0.33052808 0.24423207 0.16341151 0.100141525 0.23823614 0.09084588 0.25651652 0.19174024 0.18951544 0.17111054 -0.07298984 0.020131819 0.22372536 0.05097828 0.26939166 0.32507405 0.28302008 0.6397212 0.2272312 0.20038465 0.096740305 0.09077048 0.7299297 0.20879191 0.2846723 0.00016395189 -0.025426954 0.19734359 0.73084337 0.7409093 0.32568622 0.40899625 0.42303905 0.30488852 0.017116189 -0.006028056 0.58632386 0.66666615 0.4402941 0.17024806 0.2086685 0.022830099 0.024431825 0.25808674 0.21930185 0.3071519 0.35159233 0.41658592 0.39289814 0.48326993 0.46394685 0.59286 0.34651592 0.364016 0.4212461 0.7440453 0.36245283 0.38230222 0.44083554 0.9005486 0.3992592 0.44997454 0.973291 0.48918843 0.62958723 0.99608624 0.9920933 0.7304845 0.86718386 0.96019125 0.9780539 0.6518936 0.6650891 0.62272453 0.6826662 0.6876381 0.30437428 0.76190776 0.37979117 0.33103046 0.27817893 0.7836313 0.45786262 0.5299821 0.5302392 0.6035851 0.37385374 0.37597588 0.3277435 0.6075647 0.4328676 0.38628492 0.39777285 0.42329848 0.40070242 0.36401036 0.38756078 0.33048397 0.39151746 0.3043819 -0.11192466 0.075638965 0.27551627 0.44206566 0.3775891 0.27950916 -0.2935043 0.010694642 0.054285776 0.6384232 0.4528215 0.39470536 0.30580032 0.09602806 0.16126075 0.1573901 -0.017553566 -0.04374998 0.41762924 0.57516444 0.6187495 0.63627124 0.47827512 0.41484106 0.2717779 0.2077279 0.08773839 -0.03710767 0.32636732 0.3728758 0.6025408 0.49120104 0.4350236 0.123988196 -0.065804064 0.22787526 0.1790098 -0.063928336 0.45976645 0.06690112 0.13965696 0.20087521 0.06834535 0.14085962 0.1531095 -0.08130615 0.09268098 0.21830475 0.31360677 0.164525 -0.21926405 0.38174796 0.5114147 0.5746361 0.16034603 0.6423676 0.1241287 0.6797199 0.011615068 0.62221825 0.6083277 0.6145153 0.4587562 -0.15733309 0.44692987 0.5138527 0.58143127 0.5213709 0.054595545 0.2265467 0.37240657 0.41856545 0.3168144 0.436601 0.45673403 -0.1504426 0.02930963 0.2338784 0.45724797 0.47476518 0.5137622 0.3333004 -0.007451229 0.3424142 0.33227783 0.021190576 0.32263136 0.010412794 0.28986764 0.17457406 0.22215778 0.21703033 0.18527852 0.13591039 0.24417609 0.17695296 0.20421997 0.16967207 0.20086133 0.26276886 0.31344378 0.65659267 0.012529358 0.21328406 0.7144262 0.2138496 0.65528035 0.7189779 0.7316121 0.48259032 0.468486 0.015850838 0.45575982 0.5656309 0.57545865 0.0022756085 -0.0726821 0.17948562 0.22021013 0.10657297 0.1716186 0.28516388 0.3614382 0.5422654 0.37480527 0.3651541 0.64426535 0.35930425 0.7930574 0.38670376 0.8282492 0.4251591 0.46537268 0.5853987 0.86070776 0.9083853 0.73868823 0.8601698 0.8909389 0.8765038 0.6544011 0.6769632 0.4762698 0.64309096 0.69508433 0.7101118 0.33734664 0.74635816 0.22536552 0.1995233 0.23778382 0.37489045 0.36996186 0.29616183 0.28147143 0.29745874 0.35504025 0.37124628 0.16549432 -0.041040804 0.2505379 0.27960613 0.32320637 0.30765063 -0.08011874 -0.09466249 -0.07148752 0.25662458 0.18001986 0.047243655 -0.026242942 -0.13592233 -0.16968225 -0.20966707 0.15748896 -0.010835007 0.06589618 0.545015 0.20059183 0.053661704 -0.1372277 0.28456485 0.41186637 0.50974554 0.52452284 -0.48630562 0.3512457 -0.00260273 0.18181318 0.19995636 0.12510109 0.32285014 0.11149513 0.33628187 0.47487086 0.106853515 0.530638 0.6464179 0.12252915 0.65983236 -0.04096837 0.57794 0.43529427 0.20716386 0.16364676 0.08363784 0.53328466 0.087271795 0.6151345 0.26539373 -0.24636272 0.3904877 0