# vtk DataFile Version 2.0
Really cool data
ASCII
DATASET POLYDATA
POINTS 4293 float
41.442234 41.168163 47.88265
41.37299 41.864986 47.06722
41.37145 41.62308 47.534374
41.34696 41.763103 48.315
41.41168 42.335495 47.046314
41.30813 42.352222 47.458946
41.3577 42.463184 48.514423
41.410957 42.61226 48.974297
41.405502 42.959343 47.734768
41.435566 43.344227 48.370834
41.46748 43.127434 49.16577
42.175514 40.13113 47.394794
41.991627 40.243267 48.57577
41.903904 40.873253 47.014034
41.753494 40.841423 47.402473
41.77399 40.87666 48.71637
42.037037 40.843594 49.363964
42.387775 41.00317 50.278976
42.081963 41.81613 46.24827
41.642338 41.716938 46.724636
41.49478 41.321285 47.364563
41.48307 41.27806 48.000313
41.695797 41.579082 49.255802
42.14641 41.883545 50.220203
42.104652 42.198227 46.274094
41.71177 42.519703 46.704784
41.60428 42.43759 49.34056
42.064674 42.683002 50.185596
41.860477 42.877117 46.796215
41.672188 43.279724 47.634724
41.55372 43.467686 48.585045
41.65794 43.432907 49.276012
42.026756 43.507904 49.85529
42.000927 43.827972 47.940643
41.942917 44.04337 48.639946
42.009087 44.040268 49.295918
42.19966 43.861435 49.885807
43.10336 39.193752 47.319252
42.86232 39.23903 48.27123
43.261726 38.966885 49.48438
43.307583 39.036907 50.056084
42.948994 39.635296 46.908287
42.546516 39.802887 47.234062
42.53423 39.612625 48.600426
42.71924 39.771935 49.58581
43.207024 39.617405 50.501125
43.3302 39.801 50.865406
43.293495 41.04735 35.505314
42.563847 40.912376 46.311108
42.50052 40.244114 49.67174
43.23711 40.278687 50.947353
43.404545 41.857845 34.142063
43.1751 41.69291 34.822647
42.98677 41.72365 35.5764
43.029663 41.65955 36.36169
43.11902 42.09975 37.216476
42.325264 41.225105 46.2458
42.54001 41.325314 50.55431
42.78384 41.670654 50.967484
43.12743 42.606403 34.739357
42.82575 42.467815 35.724403
42.80819 42.47677 36.472057
43.051373 42.541237 37.224983
42.25597 42.43582 46.281345
42.462578 42.460236 50.644268
42.85933 42.70227 50.9793
43.243893 43.06522 34.79272
43.012074 43.162373 35.784977
42.98042 43.288403 36.447872
43.17795 43.207607 37.35704
42.455296 42.783554 46.39132
42.34677 43.165607 46.7167
42.536186 43.36784 50.406082
43.05937 43.143528 50.916664
43.33214 43.76856 35.91247
43.29361 43.71091 36.48095
43.320747 43.79148 37.144917
42.67438 44.053043 47.95201
42.52154 44.360016 48.726086
42.558357 44.313457 49.344856
42.654945 43.952694 49.973988
44.450287 31.981699 42.72681
44.467533 31.686039 43.056667
44.41382 32.692543 42.020542
44.36718 32.71987 42.818226
44.394802 32.7426 43.486637
44.441822 32.857742 44.00335
44.379925 33.077614 42.339443
44.495384 33.39605 43.385517
44.457138 33.956734 42.86336
44.406353 37.61756 39.540657
44.18955 37.977406 48.84317
44.15705 38.16526 49.994007
44.451378 38.01168 40.327957
44.413437 38.42133 43.249214
44.118477 38.774403 44.830605
44.334145 38.443195 45.23466
43.773197 38.64827 47.449326
43.565464 38.642918 49.542103
43.69691 38.896732 50.500145
43.920143 39.025814 51.09037
44.146854 40.139545 34.81735
43.91708 40.30229 35.183586
44.471397 39.5273 42.940853
44.298965 39.520435 43.650597
43.92617 39.247707 44.67431
43.696835 39.609287 45.962376
43.812782 39.544327 51.21206
43.890465 41.03834 34.022972
43.73209 40.83384 34.520252
43.952934 40.521595 35.440403
43.983234 40.62747 36.245087
43.64458 41.27705 36.83668
44.28414 40.452503 43.991436
44.052666 40.07917 44.34524
43.567528 40.902214 51.20138
43.64987 41.64887 34.006645
43.492523 41.304855 34.5018
43.345165 41.424156 36.660557
43.80784 41.704674 37.444523
43.59934 42.182896 37.734627
44.405163 40.978092 44.526302
43.365116 41.786655 51.346024
43.69054 42.52637 33.777225
43.704197 42.80223 38.085316
43.56085 42.52501 51.410633
43.82005 42.259144 51.565792
43.917282 43.11414 33.66802
43.53224 43.39539 34.56537
43.532066 43.506554 37.732067
43.64144 43.247467 37.9579
44.37464 44.04959 39.693913
43.49548 43.160683 46.877636
43.41041 43.42612 47.330555
43.584274 43.17271 51.099186
44.33789 44.17952 33.95614
44.00592 44.052685 34.501522
43.39138 43.692154 35.608593
43.64621 44.020615 37.394268
44.171 44.5357 38.501106
44.212883 44.66012 39.18633
44.402912 44.415314 40.250484
43.161945 44.313065 48.557644
43.33341 44.255253 49.380054
43.418888 43.869545 50.237465
44.3332 45.489655 38.682804
44.260246 45.43429 39.480015
44.44716 45.807793 40.39827
44.391705 46.125015 39.61034
44.407143 45.92625 40.12628
45.333244 29.244041 42.7649
45.318085 29.27539 43.155567
45.210785 29.958986 42.033894
45.126358 29.690235 42.50168
45.087452 29.749218 43.316826
45.268627 29.889353 44.08063
45.04735 30.617453 41.933537
44.755833 30.643839 42.74615
44.754642 30.579035 43.24602
45.160877 30.466984 44.2488
45.151505 31.909826 41.103607
44.75867 31.867004 41.814983
44.565044 31.393736 42.598984
44.64935 31.327093 43.583443
44.813705 31.686193 44.275517
45.20142 31.672527 45.299137
44.959404 32.69375 41.173668
44.608562 32.44717 41.712887
44.563076 32.362583 43.6055
44.509186 32.536396 44.017097
45.402355 32.615623 46.07322
44.992733 33.122242 41.270603
44.643414 33.144207 41.777176
44.554455 33.401913 42.16355
44.59425 33.575943 44.464382
44.947468 33.553753 45.2874
45.305454 34.749233 39.388958
45.227562 34.523636 40.99388
45.035614 34.19605 41.78555
44.686543 34.269127 42.699444
44.57759 34.2822 43.420353
44.73935 34.273426 44.524956
44.794384 34.192677 45.346455
45.200382 34.528454 46.226345
45.175022 35.83477 38.588722
44.890903 35.808952 39.524273
45.060608 35.366604 40.199486
45.349937 35.58943 40.916904
45.17098 35.460705 42.971592
44.847748 35.11547 44.463978
44.92511 35.38641 45.7868
45.149418 35.54715 46.2715
45.11144 36.769985 38.211067
44.87394 36.51521 38.747353
44.67325 36.680214 39.35422
44.544518 36.893204 39.96184
45.451347 36.647163 42.326473
45.033813 36.280666 43.436142
44.722767 36.776302 44.41638
44.954334 36.64449 45.35883
45.071194 36.768723 46.70744
45.12378 36.749542 47.45358
45.21357 37.297546 49.490517
45.352726 37.40331 37.833042
44.592617 37.594078 38.889343
44.518456 37.499874 39.401752
44.50038 37.261795 40.107635
44.672733 37.844067 49.57247
44.45589 38.107796 50.3367
44.997524 38.371 38.02355
44.563286 38.363277 38.96563
44.5954 38.592857 39.84397
44.907463 38.534355 40.878967
44.67442 38.33496 42.5851
44.461403 38.7829 51.265614
44.988476 39.92028 34.09768
44.596775 39.94794 35.627625
44.86368 39.98412 36.458244
44.801357 39.428783 39.26917
44.890976 39.32826 40.36772
44.80188 39.476364 42.03218
44.623795 39.439014 42.38235
44.745804 39.681854 51.78721
44.839935 40.70487 38.014233
45.104073 40.48523 39.36045
45.176853 40.49107 40.351933
44.586357 40.042522 51.87189
44.42463 41.49775 37.58945
44.966568 41.328773 37.873074
45.153385 41.747993 38.962955
45.041603 41.504765 40.466427
45.057068 41.97772 41.10364
44.97085 41.62183 43.910065
44.454758 42.61746 33.142704
44.940758 42.29549 40.93525
44.733643 42.830544 41.22453
44.987396 42.66265 42.32151
45.13377 42.5328 43.323803
45.03412 42.16274 44.451145
44.21631 42.635094 51.413082
44.14585 42.50321 51.564236
45.256836 43.915398 29.038261
45.19872 43.73804 29.497337
45.31292 43.744537 30.037203
44.66101 43.089626 33.059658
44.71406 43.70159 40.342197
44.762154 43.586132 41.577938
45.004128 43.583122 42.330227
45.43727 43.351543 43.66755
45.260857 43.12266 44.311966
44.32448 43.07988 47.440475
44.623825 43.402134 48.667915
44.511536 43.417824 50.689224
44.185127 43.431313 50.84681
45.276752 44.49769 28.965527
45.177223 44.35242 29.44519
45.293674 44.429966 30.117207
45.185703 43.959564 33.06459
44.65901 44.675835 33.924038
44.510647 44.52529 34.446598
44.595364 44.561142 36.27968
44.57395 44.601803 40.57312
44.7547 44.515125 41.287426
45.1337 44.147243 42.55183
45.33324 43.99525 43.10398
43.7698 43.759792 47.99444
44.025974 43.8761 48.49766
44.06273 43.764687 50.243656
45.29601 44.8033 29.47482
45.213257 44.983 33.187984
45.188656 45.22362 33.71629
44.990177 45.289303 34.5766
44.579884 44.723618 35.996304
45.012318 45.30316 37.374462
44.47275 45.76283 38.52081
45.006268 45.37543 41.329956
45.293724 45.807495 35.343834
45.113926 46.07943 37.75756
44.845413 46.340576 38.60981
44.628227 46.62495 39.550842
44.642906 46.358994 40.44871
44.96323 46.437523 41.066864
45.062218 47.185356 38.987614
44.994946 47.5609 39.672604
44.94411 47.446926 40.35363
45.120556 47.30173 40.883526
45.143593 47.826504 39.790546
45.23426 47.84853 40.29611
45.806572 29.172358 42.160763
45.748924 29.009098 42.658035
45.754955 28.98187 43.353493
45.890015 29.210148 44.0231
45.592262 29.660011 41.87502
45.442738 29.34834 42.3126
45.491318 29.337381 43.59965
45.712257 29.591244 44.269592
45.868073 30.002857 45.029495
45.566277 30.556133 41.523403
45.489563 30.50245 44.709373
45.756016 30.386267 45.237396
46.165062 30.343945 45.74217
45.497147 31.26898 45.419212
45.933495 31.603554 46.145252
45.785934 33.108875 40.098892
45.696617 32.571552 46.27032
45.986565 32.783314 46.76464
46.117546 33.779358 38.794865
45.981613 33.637283 47.151253
46.14118 35.13436 37.867477
45.534073 34.416393 39.1084
46.33212 34.53653 48.21016
46.43913 34.82907 50.31497
46.23939 36.163 29.207958
46.105457 35.95646 29.769426
45.967575 36.050385 30.42807
45.926968 36.24216 30.845177
45.567524 35.70821 37.903885
46.182117 35.642372 48.845848
46.24165 35.848694 49.535385
46.35308 35.595417 50.325005
46.109352 36.98656 29.03226
45.831856 36.561943 29.663568
45.69399 36.58397 30.40404
45.860115 36.861393 31.120123
46.252598 36.67835 36.95227
45.606167 36.543793 37.615707
45.575764 36.506355 41.312492
45.61162 35.98349 42.4493
45.39931 36.847805 48.583622
45.665813 37.343697 49.963074
46.084595 37.420605 29.127714
45.720444 37.346573 29.645733
45.60946 37.46294 30.52033
45.907875 37.58217 31.309334
46.12203 37.966675 36.754135
45.62703 38.048466 51.150444
46.23933 38.14282 29.03858
45.86268 38.048496 29.621565
45.77178 38.214245 30.586977
46.156277 38.641796 31.010422
45.515446 38.442375 51.456013
46.082367 38.846695 52.37961
46.195423 39.236523 30.44178
46.128662 38.84279 30.938679
[...]
POINT_DATA 4293
SCALARS features_00 float 1
LOOKUP_TABLE default
0.5658843 0.6538412 0.6241509 0.6127342 0.6875691 0.6837914 0.66948366 0.6760744 0.72085536 0.7449824 0.724246 0.4529546 0.45044214 0.5458791 0.5372158 0.505057 0.47352684 0.4611459 0.6572834 0.6458396 0.5963148 0.57202893 0.5665832 0.58213174 0.68701017 0.7049054 0.65632266 0.66880965 0.735239 0.75534964 0.76124734 0.7532681 0.7479129 0.8165169 0.81684774 0.8059621 0.7744218 0.3067206 0.35822612 0.3281573 0.33788443 0.31524223 0.39466578 0.38620713 0.3674892 0.35957897 0.36543614 0.55545104 0.50374556 0.39691728 0.38599098 0.5840046 0.5955229 0.6352601 0.6131842 0.5664985 0.57660866 0.49773782 0.5459924 0.5898083 0.66942227 0.6653417 0.5962311 0.704269 0.63660157 0.6538844 0.5337169 0.578738 0.5785686 0.5428673 0.7445204 0.79053056 0.7217603 0.6888628 0.4590624 0.4905107 0.4580611 0.8850461 0.8689587 0.83502483 0.7786275 0.37992892 0.40300134 0.3312332 0.33397317 0.32545358 0.30743265 0.31136152 0.2910682 0.25193116 0.27774867 0.20223391 0.2827488 0.19851777 0.077029616 0.095488265 0.042627905 0.22952835 0.31078428 0.33491573 0.3447364 0.50065017 0.50207484 0.110464856 0.1735952 0.1416401 0.12043958 0.35722506 0.5499234 0.543096 0.5008478 0.45380393 0.46391368 0.14921191 0.17615704 0.44110578 0.5734624 0.5666786 0.5273578 0.4254827 0.4691613 0.040482476 0.56364995 0.5601436 0.42170018 0.6408701 0.6128063 0.49400634 0.46879542 0.42833775 0.41478533 0.15939304 0.73760146 0.73910373 0.6778693 0.37251228 0.37082082 0.45241034 0.35367736 0.17206408 0.21266043 0.22843206 0.871695 0.8422067 0.7441121 0.29821944 0.33236432 0.39714488 0.42876655 0.41226727 0.70584965 0.68203866 0.6711035 0.6849528 0.6375078 0.5555359 0.59982467 0.5711847 0.5609553 0.50764394 0.34982675 0.39912122 0.44558084 0.4437533 0.396183 0.37775868 0.2779768 0.34088016 0.34611598 0.32547933 0.27549013 0.2522503 0.2868368 0.28008294 0.26121104 0.24689436 0.24925286 0.049208716 0.14209904 0.20481823 0.22945128 0.21472433 0.19929075 0.12399696 0.2832799 0.2697136 0.17401625 0.029890615 0.026753858 0.14919573 0.08416077 0.023168914 0.29332644 0.30095625 0.2909494 0.25582743 -0.10618251 -0.007903352 0.058473274 0.04006216 -0.06417662 -0.10942018 0.08199027 0.26661575 0.30427235 0.28791225 0.24349174 0.20536348 0.28080693 0.2693544 0.283436 0.19218332 0.06499781 -0.0007878989 0.3296165 0.5384706 0.44810003 0.37887213 0.09270011 0.021645425 -0.045581467 0.02155542 0.3445255 0.04593592 -0.20849034 -0.16116467 0.35542884 0.31953663 0.1789667 -0.13434471 -0.15460193 0.0024844408 0.018173546 0.463273 0.0399378 0.12424487 0.11317851 0.046965107 0.028701268 0.62658226 0.62298286 0.48146647 0.49591708 0.47634166 0.40572655 0.16084461 0.17379194 0.1586867 0.097165294 0.07674101 0.5266422 0.48823804 0.65338755 0.6681304 0.46837413 0.46403265 0.44494104 0.34347054 0.3119432 0.30091295 0.1942199 0.25024828 0.2303756 0.18550876 0.1542806 0.6410494 0.61996555 0.72560984 0.43390545 0.27021575 0.2585164 0.22923355 0.19367336 0.07640596 0.3068213 0.33563146 0.16307934 0.15412588 0.347965 0.48999122 0.4985724 0.5242723 0.45476696 0.57734895 0.6188767 0.6241735 0.60123193 0.634634 0.7068822 0.7191715 0.6788924 0.5863055 0.68352985 0.70977163 0.63808596 0.5468817 0.46747863 0.6032311 0.47186387 0.44452125 0.40851343 0.40062118 0.35345995 0.22737062 0.27155334 0.23110864 0.21574906 0.09705871 0.13568315 0.2408523 0.08221312 0.28280336 0.62164026 0.6909418 0.7420479 0.72509265 0.22325802 0.06878176 0.117213726 0.24036393 0.5569019 0.670079 0.752583 0.6928878 0.09401852 0.2323923 0.0118498355 -0.09085876 -0.07033987 0.093249634 0.54310405 0.65339285 0.7544236 0.6534644 -0.009992968 0.24192819 0.48684052 0.62992024 0.7226802 0.61249715 0.26272768 0.23279737 0.6080296 0.61133635 0.40401226 0.25112447 0.4726904 0.31202558 0.36530977 0.42730564 0.5020572 0.22753324 0.53974587 0.18217963 0.13608252 0.15191975 0.089788 0.4332224 0.4558276 0.5244658 0.62452495 0.6026089 0.46233216 0.23760341 0.16237628 0.6993569 0.6642447 0.53834015 0.43931273 0.3519368 0.32717335 0.69115007 0.65125227 0.5225236 0.24239758 0.24433698 0.22711968 0.20414044 0.14887272 0.08974826 0.09162407 0.4093539 0.63111854 0.4462151 0.16306959 0.12292914 0.31902775 0.62115073 0.5339478 0.51826954 0.5795483 0.6341076 0.63684523 0.6650542 0.7109338 0.68680966 0.58931905 0.41501588 0.5898638 0.6405972 0.48575115 0.42880926 0.34148464 0.45205525 0.36762995 0.2997823 0.27962363 0.2100189 0.2802553 0.28896052 0.23583916 0.175888 0.22411117 0.115434885 0.3019795 0.30236924 0.31801167 0.6590269 0.6686054 0.6756256 0.34556463 0.2703872 0.1341233 0.065497 0.13112801 0.25445828 0.29959783 0.30580443 0.637218 0.665964 0.6314095 0.2112826 0.17351376 0.08811783 0.29002836 0.52251256 0.55701494 0.61116636 0.47846484 0.11961723 0.132709 0.44756427 0.48650986 0.53002715 -0.020023704 0.08473517 0.17357028 0.18248843 0.40752846 0.42375004 0.21472842 0.35327938 0.3711269 -0.22327825 0.18678288 0.16961241 0.14203936 0.1938928 -0.038914442 0.2388483 0.33755946 -0.035449997 0.59322625 0.4119699 0.38725522 0.07227268 0.030260261 -0.30810237 0.34255382 0.70743835 0.67935884 0.4756151 0.11208781 0.73988956 0.7275492 0.16746047 0.13652846 0.02174601 0.085443124 0.7399772 0.7216898 0.0909151 0.19896801 0.25615928 0.688583 0.60403496 0.43231168 0.23045996 0.19917905 0.23292173 0.21795017 0.19247256 0.53494763 0.47612265 0.53373784 0.38280532 0.23958944 0.24637797 0.16666758 0.55199945 0.60917914 0.5934135 0.6320593 0.61292076 0.46750093 0.5085138 0.30732018 0.28643793 0.19504076 0.22271149 0.23997267 0.50251544 0.23378454 0.16883373 0.477861 0.49409857 0.49883783 0.2938189 0.17394042 0.23624511 0.30546227 0.6467961 0.6492096 0.40573087 0.4339884 0.26595315 0.16976467 0.3201206 0.30539975 0.64432955 0.651168 0.6543419 0.6291084 0.34110808 0.030465778 0.27624935 0.6337595 0.5002814 0.22773197 0.23964602 0.23941699 0.16533956 0.54059744 0.14946327 0.006044604 0.088030785 0.077536404 0.4293839 -0.19321205 -0.14103222 -0.21288851 0.092077814 0.39850867 0.07936351 -0.48004508 -0.32619008 -0.42254543 0.13533695 0.37859374 -0.4460612 0.0891514 -0.0036086887 0.3140807 -0.26723063 0.49795666 0.5854784 -0.18588541 0.2307033 0.59951675 0.5440424 0.53395736 0.6936531 0.64191645 0.3222293 0.5342917 0.60810757 0.6450707 0.6199397 0.7271018 0.02560328 0.13725974 0.21611264 0.29327896 0.6856932 0.71463084 0.7200414 -0.01271008 0.2357974 0.029719077 0.12103808 0.32482198 0.38109392 0.67557794 0.11701281 0.0417153 0.2501014 0.4483075 0.54559344 0.40086237 0.27254537 0.17932758 0.22342053 0.23087612 0.24352455 0.2550948 0.22736292 0.16170037 0.52007604 0.45632428 0.40746355 0.29836872 0.32727137 0.35470507 0.23039849 0.22709413 0.18142359 0.1354569 0.47673616 0.49663943 0.45879835 0.44286495 0.14840879 0.26526582 0.3010822 0.47855514 0.4865945 0.28723887 0.2744373 0.29862964 0.2876822 0.6078723 0.580646 0.60609484 0.35055023 0.42827094 0.26901707 0.60932916 0.60806876 0.31746924 0.5940984 0.5562542 0.18233302 0.077962846 0.5649529 0.05312065 0.4621042 -0.28523287 0.07044633 0.40814978 0.3000363 0.3185294 0.38128954 0.32335597 0.3968364 0.32229507 0.25969562 0.409074 0.31589007 0.36544767 0.25503126 0.27325124 0.24943751 0.5676141 0.50059783 0.6459242 0.58321726 0.64003193 0.37901402 0.5458543 0.621249 0.6478652 0.60372204 0.60905385 0.5458422 0.39372808 0.38813043 0.53248394 0.57742107 0.5450129 -0.29095596 0.17226052 0.13984986 0.25065538 0.36390072 0.39046103 0.5510342 0.12710068 0.1396189 0.22556108 0.2772204 0.49470878 0.5163379 0.35053244 0.20028391 0.23103373 0.23844934 0.2246347 0.55076927 0.550645 0.48202592 0.40382332 0.5487639 0.5837885 0.46154362 0.33361518 0.46620286 0.21698622 0.12584421 0.22432852 0.22069484 0.06553246 0.00033963472 0.1745992 -0.027082969 0.44591826 0.41614407 0.09494432 0.19802493 0.2740615 0.30263066 0.24559696 0.26719338 0.065823324 0.29438335 0.23947716 0.5537493 0.5259555 0.15189487 0.0617049 0.4937759 0.06600896 0.007953044 0.48283213 0.03954745 0.12701102 0.42673123 0.23052794 0.2688514 0.38876456 0.3342748 0.38261205 0.36005473 0.3978678 0.42965752 0.3885857 0.4128818 0.46012694 0.10106167 0.19206747 0.33206666 0.54517716 0.38358307 0.5768327 0.5766517 0.48016745 0.5427573 0.25682372 0.54298824 0.5223077 0.5355747 0.46832398 -0.27384925 0.32074565 0.23143584 0.30363178 0.45563042 0.52256125 0.4794703 -0.31527197 -0.4680695 -0.096774384 0.14736196 0.35295808 0.36500823 0.36101353 0.02189091 0.04691168 0.17395465 0.16132125 0.13498737 0.23709328 0.31847292 0.32226744 0.5035389 0.52937853 0.16077286 -0.15746069 0.13283554 0.19711304 0.21693015 0.21652329 0.358192 0.48818493 0.55721074 0.58056504 0.49241126 0.46556646 0.3093041 0.1810343 0.6305316 0.5840504 0.58927417 0.56427354 0.43002427 0.65156853 0.6445781 0.58025074 0.4905123 0.58674884 0.61690754 0.6146791 0.5030307 0.3905178 0.4187936 0.41821367 0.52601427 0.52490973 0.20405506 0.107646875 0.40063432 0.35277945 0.014149517 -0.0034872442 0.16789667 -0.13748868 0.325108 0.38226163 0.22933227 0.33789808 0.10029713 0.24943255 0.38828152 0.3584484 0.25983295 0.118652076 0.2771325 -0.11847893 -0.21620741 0.21256167 0.4288804 0.08310796 -0.30912814 0.03177025 0.12253651 -0.0023064502 0.31638098 0.19591253 0.014848724 0.069337696 0.15899813 0.3431781 0.19886467 0.13677463 0.20647544 0.19946918 0.31306452 0.3375394 0.333837 0.37350252 0.2880066 0.40374154 0.23506117 0.4015727 0.16996258 0.060246933 0.38237232 0.015210403 0.17574358 0.5476866 0.5129385 0.4163324 0.28118804 0.53304046 0.43163776 0.37695405 0.44315088 -0.6250691 -0.35255593 0.072834715 -0.018105648 0.41363895 0.43092567 0.45115125 0.39226544 -0.14939986 -0.10545277 0.20064166 0.21682362 0.41251993 0.05870252 0.14286247 0.0893112 0.18687464 0.50934273 -0.0005197134 -0.061004832 0.12995361 0.19660023 0.33503866 0.51535326 0.18785149 0.55786425 0.14637607 0.11824115 0.14001137 0.14405248 0.16480462 0.68600845 0.66711676 0.640098 0.60599124 0.5847602 0.51292425 0.38714772 0.7101346 0.68621266 0.637996 0.49697617 0.5560826 0.58583206 0.57810634 0.51438487 0.5566343 0.58920133 0.5607082 0.63888764 0.5794217 0.4856895 0.5110103 0.47207814 0.6228808 0.65179586 0.43643165 0.15064654 0.41359824 0.4092195 0.39008006 0.42204064 0.5354234 0.12111427 0.33411205 0.37264958 0.3683867 0.29934326 0.31511164 0.14723605 0.32999325 0.2244367 0.12661065 0.22788298 0.47615153 0.3626321 -0.011264846 -0.13648392 0.18099943 -0.08765312 0.14516622 0.46200776 0.4364425 -0.1942871 -0.15434495 0.13175981 -0.013987824 0.5293565 0.47096276 -0.08643882 -0.031373322 0.42245942 -0.14548333 -0.04602644 0.082092375 0.20807351 0.09088472 0.16683456 -0.24385038 -0.1681594 0.29879972 0.13877806 0.36403412 0.38963816 0.37879705 0.37897778 0.3750077 0.025023263 0.33534658 0.22331373 0.06756736 0.5006486 0.4541001 0.13164444 0.4699239 0.47235715 0.24792358 0.11015707 0.3297295 0.36198843 0.052054957 0.035554517 0.5055129 -0.045137495 0.5304145 0.54553485 0.22382818 0.31104788 0.21951473 0.28113496 0.62385803 0.42885128 0.54379904 0.5359018 0.49130702 0.39114416 0.3095527 0.31451893 0.36104774 0.39721876 0.66466457 0.6914278 0.66691434 0.5888704 0.4781382 0.5594084 0.54382914 0.5209891 0.4581871 0.4681031 0.5278816 0.5699306 0.542604 0.51532185 0.5362787 0.4379776 0.47287694 0.59057254 0.57363415 0.44989794 0.39092386 0.3625335 0.6198915 0.5761813 0.52293736 0.20523149 0.15121824 0.18455076 0.3440835 0.22569735 0.63227344 0.08412443 0.064855166 0.2730166 0.34283412 0.25290698 0.18702838 0.19161913 0.26250613 0.30559334 -0.0229761 0.08460479 0.3494972 0.4137077 -0.12118648 0.46750748 -0.037270628 0.14612368 0.20870975 0.2831505 0.607144 0.5416191 -0.15776414 0.18149437 0.6032672 -0.40696025 -0.54365385 -0.01265857 0.017523073 0.48476982 -0.0015686136 0.05328416 0.09682639 0.42917448 0.38253704 0.16571577 0.22369415 -0.17605944 -0.32662418 0.22701426 0.26579046 0.27164218 0.31945297 0.36444193 0.4255492 0.43663543 0.37602663 0.34933054 0.45874667 0.4708335 0.2676954 0.48811865 0.4871754 0.10246612 0.45754746 0.21295825 0.23154442 0.34898794 -0.044205368 0.25691324 0.30869657 0.0019283295 0.08519827 -0.014771929 0.2111092 0.045173097 0.09494624 0.15649942 0.16898035 0.43356317 -0.063512795 -0.0015453068 0.48733276 0.28985128 0.01702198 0.48146272 0.3919544 0.3320076 0.5024769 0.3881649 0.4897942 0.46892416 0.4221958 0.37550008 0.3471676 0.35248154 0.3892455 0.44073486 0.44767013 0.6368997 0.65919375 0.56829727 0.5152184 0.421517 0.3823252 0.4291798 0.5183211 0.46961462 0.3902817 0.53329307 0.5235142 0.49619788 0.6203066 0.57714605 0.47138548 0.3925336 0.46953607 0.3680355 0.6581565 0.62470675 0.37108296 0.25287902 0.28191233 0.3139194 0.40421888 0.60905385 0.557107 0.3228094 0.2766311 0.51707244 0.4241272 0.35813084 0.4471211 0.48155227 0.5162048 0.20338033 0.33667707 0.43089244 0.41363418 0.482867 0.21382356 0.26996472 0.29482836 0.32984322 -0.025943324 -0.010613732 0.103546694 0.3223051 0.35552096 0.5375651 0.40607256 -0.12963574 -0.09215891 0.03298497 0.35478613 0.65731657 0.605005 -0.20454836 -0.067755826 0.22338587 0.6749295 0.10894422 0.14702669 0.5836272 0.52987874 0.4262796 0.12242139 0.102441624 0.17409004 0.20795852 0.081177294 0.105004035 0.25985295 0.23189598 0.393892 0.36480427 0.2798009 0.4167313 0.42046827 0.2579301 0.42342666 0.44482484 0.17287467 0.46546346 0.1443691 0.43655437 0.24879315 0.24815544 0.2767905 -0.03291123 0.33042967 -0.016196817 0.28725505 0.3342051 -0.048069358 0.185244 0.31725284 0.15522692 -0.105677195 0.0037609525 0.11761186 0.14423159 0.42921895 0.11062971 0.08723934 0.43785083 0.40464887 0.40062612 0.31740123 0.3123563 0.22146758 0.3674553 0.35227224 0.32189327 0.33174688 0.41196132 0.44675273 0.45095235 0.58588403 0.4777068 0.40157402 0.3807144 0.37563306 0.4095155 0.43468583 0.5908741 0.5556898 0.48697063 0.36552578 0.35569814 0.48237783 0.49598646 0.44384176 0.39932144 0.6449379 0.59490204 0.3773852 0.28637496 0.37096775 0.38565075 0.39327765 0.38316178 0.6447962 0.6675953 0.2527681 0.297943 0.33254352 0.35696125 0.44572663 0.5615296 0.6139666 0.16102287 0.09271116 0.21194747 0.04943022 0.47404128 0.49765456 0.516817 0.29848313 0.32192305 0.5012566 0.40554243 0.19834362 0.35532528 0.44153756 -0.15816113 0.21393755 0.36093074 0.5411903 0.43901113 0.36617145 0.30031773 0.610796 0.69319844 0.26942277 0.27822286 0.644084 0.29948765 0.37116778 0.54511523 0.30785984 0.05452425 -0.027896808 0.38744897 0.37312698 0.39007372 0.38975742 0.40934825 0.39172316 0.25724596 0.4149051 0.40600973 0.2651249 0.33421314 0.1324123 0.30119592 0.022584397 0.2715295 -0.04866748 -0.0317028 0.32184318 0.3091829 -0.01649608 -0.08102186 0.31529203 0.3208705 -0.2683481 0.19052097 0.1888429 0.27396736 0.09787861 -0.21880126 -0.15989293 0.0070852097 0.05683143 0.15815072 0.25256217 0.18847144 0.12140327 -0.09199851 0.26676878 0.3185783 0.35832095 0.32738063 0.31812054 0.37000638 0.36135596 0.42295104 0.2828051 0.31287318 0.5729133 0.5349324 0.4495334 0.27331594 0.27486256 0.4137259 0.42598954 0.37384167 0.39889723 0.40850642 0.62032706 0.30393052 0.11532112 0.2638859 0.31439736 0.39802277 0.63327026 0.36225298 0.4211228 0.55382526 0.05763892 0.1380685 0.20850512 -0.16682144 0.47571984 0.50836086 0.48351386 0.25968644 0.18606713 -0.2745128 -0.28528076 0.5137087 0.43194312 -0.47200814 0.43511975 -0.12837881 0.28303552 0.31510398 0.32107773 -0.08643466 0.3094458 0.5545341 0.32999355 0.33449516 0.4278897 0.6526109 0.6058831 0.4283026 0.4805454 0.54665506 0.46727467 0.48499563 0.43038803 0.34103617 0.33260965 0.15418586 -0.11504723 0.045045204 0.42795163 0.082200244 0.42169523 0.32125956 0.40032202 0.3970047 0.45395637 0.39890897 0.49338186 0.37407902 0.19942069 0.26286966 0.26187304 0.20548311 0.25624797 0.29049873 0.26683754 -0.066134706 -0.16388345 0.08746721 0.2265692 0.2400417 0.014886454 0.0032952707 -0.13359895 -2.4833716e-05 0.0907055 0.14557272 0.068987906 -0.18921912 0.2020232 0.20497319 0.18584178 0.07155745 -0.0020710044 0.22927827 0.2036303 0.33541626 0.31891102 0.24343228 0.270147 0.35031173 0.34389037 0.36519808 0.39055094 0.36958253 0.4789945 0.45146954 0.38975352 0.116612054 0.0955876 0.120085746 0.26462707 0.25928184 0.32053024 0.3724994 0.40919012 0.415334 0.5551519 0.04484492 -0.0068708416 0.2753582 0.34680036 0.5795969 0.5676508 -0.02898664 0.12970528 0.11062762 0.31031135 0.325992 0.5405909 -0.021828271 -0.10509856 -0.14405578 0.45276856 0.5018012 0.4364563 0.098057 -0.28207403 0.45466903 0.33360523 0.3977781 -0.11276751 0.15395658 0.19639026 -0.089782715 0.037644744 0.14453553 0.12159736 0.08172881 0.35558105 0.44481802 0.4813907 -0.09345447 0.5157108 0.53495294 0.36600143 -0.2013548 -0.34134644 0.5069724 0.5202476 -0.3537688 0.47206575 -0.36107218 0.3192582 0.39593917 -0.23028988 0.147368 0.44993514 0.4537645 0.12892714 0.29073843 0.4356349 0.41170597 0.3865566 0.49073085 0.52932745 0.33405575 0.41626865 0.032558315 0.0969583 0.100472994 0.19197547 0.38545597 0.22345465 0.6158611 0.44268984 0.1355718 0.19565098 0.21808025 0.65115196 0.12765948 -0.10700762 -0.40208095 -0.19828236 0.38625887 0.5403452 0.052924156 0.055712007 0.3366742 0.38158056 0.17301586 0.1608949 0.17061438 0.19867289 -0.10403933 0.29657668 0.49126995 0.7564605 0.8170713 0.1561471 0.19179392 0.21980499 0.1380567 0.46040854 0.55094755 0.6431438 0.7710577 0.81700397 0.18072838 0.28229016 0.6440836 0.7019889 0.78187823 0.808822 0.33251143 0.16720529 0.268469 0.35980552 0.3907141 0.36723757 0.3429606 0.3881843 0.39005357 0.1872999 0.27193636 0.13238136 0.17186132 0.14456892 0.28675008 0.32156506 0.32601136 0.27218768 -0.03974155 0.23017564 0.21770161 0.22147247 0.2633398 0.3823095 0.43200994 0.43929756 0.44557965 0.3550428 -0.041375853 0.004529305 0.25462398 0.2570454 0.39444518 0.3830452 0.516184 0.0015957039 -0.008524232 0.3417549 0.5074067 0.46056116 -0.13109761 -0.35671166 0.3080483 0.45726794 0.35155797 0.29581922 0.17763956 -0.06595228 0.065177225 -0.0779293 -0.008959457 0.017163185 -0.18398798 -0.11885235 -0.09736191 0.057235114 0.24682593 0.3732851 0.46377248 0.5058454 0.53672695 -0.44037104 0.5423155 -0.3589764 0.501531 -0.37022918 0.26178235 0.36481017 0.07880865 -0.31898093 -0.36737904 0.4381996 0.42946833 0.3363261 0.18053503 0.08173929 0.41297412 0.39547324 0.47983578 0.4745162 0.5303323 0.51067305 0.2819151 0.46376142 0.32313192 -0.023536704 0.1746768 0.098953515 0.7207564 0.2518625 0.25702727 0.7558936 -0.22085103 -0.29876426 0.0773165 0.22123316 0.25495353 0.283197 0.81334734 0.7236722 0.25805202 0.5197144 0.7508444 0.6469531 0.41323173 0.35920775 0.07046293 0.14142638 0.54541093 0.7181554 0.1658977 0.16438791 0.18536787 0.13344708 0.80561656 0.43426028 0.83173347 0.8310592 0.7046237 0.36229855 0.16955912 0.099064656 0.6222336 0.7165347 0.78302354 0.8176658 0.82295215 0.70860434 0.5973078 0.5079428 0.28669712 0.34121388 0.3179778 0.70101726 0.77329487 0.7007098 0.5972018 0.49840525 0.31806707 0.35574597 0.37056893 0.3504821 0.6767958 0.6183666 0.7230606 0.5298956 0.66268647 0.6465349 0.44423565 0.45427614 0.37468997 0.36203212 0.3977879 0.36704373 0.23517904 0.32659906 0.33146596 0.28955808 0.12629534 0.112014614 0.23089522 0.2978316 0.42015463 0.28746164 0.18902671 -0.04708597 0.19771425 0.16220467 0.45460135 0.44381654 0.3912087 0.34773088 0.053144343 0.42084506 0.39835745 0.34554067 0.01128602 -0.032843918 -0.12866901 -0.2943115 -0.17133448 -0.23555465 -0.13237634 -0.121008866 -0.13529688 -0.1400522 -0.14998057 -0.07688194 0.1973452 0.25966758 0.432683 -0.45277688 0.47906807 0.53497803 0.47068763 -0.15885665 -0.24664727 -0.34194878 0.19680154 -0.15847488 -0.25807112 -0.011374801 0.08073316 0.13158414 -0.0035833418 0.37191218 0.32776502 0.19607097 0.40585595 0.31182423 0.5085763 0.434149 0.54443336 0.3577698 0.51897925 -0.08189258 0.16013059 0.45380878 0.27688232 0.04862024 0.62267 0.108921856 0.7069042 0.3041708 0.26436824 0.8528761 0.24188288 0.35636032 0.34983248 0.89124274 0.39858052 0.8340023 0.75134325 0.63873905 0.5058308 0.43975586 0.2213319 0.6471575 0.74664503 0.7137096 0.6483918 0.319847 0.3472174 0.30227762 0.27025726 0.27460438 0.7977228 0.81463087 0.71187955 0.79800236 0.8032