# vtk DataFile Version 2.0
Really cool data
ASCII
DATASET POLYDATA
POINTS 4149 float
40.370075 19.180887 51.60505
40.294956 19.7119 50.766335
40.243786 19.618916 51.411503
40.355022 19.683859 52.08501
40.20598 20.4691 50.777725
40.13908 20.460915 51.536556
40.261295 20.368992 51.982746
40.303 21.030558 50.916634
40.278362 21.091017 51.44417
40.349213 20.969177 51.8697
41.283974 18.080462 50.72749
41.171795 18.381128 51.785774
41.27537 18.871004 49.823757
40.795807 18.754175 50.820477
40.778057 18.712639 51.64453
40.91776 18.856812 52.202877
40.837135 19.748226 49.77118
40.508823 19.388987 50.478275
40.61343 19.544573 52.398003
40.908916 19.774883 52.699593
41.264748 20.208065 49.26151
40.716114 20.347206 49.87886
40.510784 20.527573 52.307907
40.981842 20.257284 52.722103
41.177692 21.202353 49.719948
40.60611 21.285784 50.628937
40.587383 21.431911 51.46885
40.71878 21.106453 52.11519
40.78015 21.648937 51.011185
40.874306 21.655415 51.49724
42.179253 17.306149 49.92717
42.067913 17.737852 49.234097
41.910137 17.697426 49.69924
41.566326 17.889877 50.591824
41.71788 17.893774 51.341557
42.064045 18.08844 51.916767
41.704502 18.946705 49.209213
41.61612 18.399014 49.46009
41.198784 19.036596 52.6133
42.147804 19.88544 41.829563
42.04219 19.890047 42.569706
42.139786 19.848806 43.28303
41.47209 19.3264 49.09243
41.52721 19.644165 52.848503
42.355526 20.089556 41.25307
42.120396 20.40103 41.70707
41.901714 20.41789 42.540386
42.043198 20.59077 43.35434
41.65243 20.63625 48.869923
41.466404 20.228619 52.821342
42.184643 21.231712 41.81226
42.071674 21.337278 42.519207
42.13362 21.050743 43.444603
41.909306 21.37354 49.056812
41.537266 21.300781 49.433434
41.372242 20.978441 52.476917
42.352257 21.837671 42.70275
41.96183 21.754637 49.600227
41.67682 21.78418 50.425087
43.05956 17.082148 49.085087
42.562695 17.128311 49.60082
42.785267 16.818419 50.44885
42.811985 16.946291 51.259834
43.148926 16.77607 52.264233
43.36796 17.799456 42.13782
43.21826 17.705181 42.537994
43.167423 17.955294 43.77054
43.25331 17.881685 48.31816
42.36479 17.827349 52.35291
42.925674 18.59855 41.817917
42.670788 18.802868 42.433807
42.531364 18.494537 48.738113
42.940292 18.234371 52.578217
43.19454 18.55039 53.055397
42.83207 19.69284 40.924187
42.430813 19.730686 41.393784
42.460064 19.370401 43.269466
42.916138 19.237482 44.088985
43.076225 19.787607 48.384537
42.39824 19.4258 48.524666
42.494335 19.553125 52.826115
43.322166 21.040394 33.869408
43.340843 21.096485 34.12041
42.74085 20.612183 40.90004
42.891647 20.459635 48.346195
43.30584 21.5117 33.626797
43.2605 21.852758 34.087692
42.819206 21.043798 40.975098
42.513237 21.671286 41.650543
42.403717 21.564537 43.41433
42.91431 21.488802 44.02633
42.494465 21.53144 48.898983
42.741707 21.218752 52.363346
43.310654 22.116747 33.65369
43.295353 22.087084 34.174755
42.96912 21.868557 41.290604
42.81489 22.166836 41.842842
42.654224 22.126106 42.50615
42.688396 22.059591 42.948147
42.72453 21.753061 49.180294
42.37199 21.83502 49.641914
42.26713 21.959085 50.183796
42.80087 21.702755 51.05645
44.467953 13.089086 42.301277
44.468132 13.683215 41.581173
44.481243 13.386691 42.334454
44.457443 14.046281 41.931606
44.209938 16.039627 49.968227
43.973606 16.222456 50.528408
43.64595 16.110123 51.59559
43.80544 15.986111 52.467056
44.02961 15.932646 52.9926
44.43957 16.36831 41.51036
43.68955 17.114225 42.679245
43.789574 16.98262 43.917824
43.96109 16.725805 44.22918
44.22117 16.370192 45.1059
44.371746 16.426825 45.972095
43.92805 16.614906 48.68848
43.279896 16.585255 49.77338
43.49405 16.35647 52.32271
43.66827 16.710793 53.183483
44.140797 16.834286 54.149006
43.49786 17.379543 42.632706
44.0892 17.865234 45.27604
44.048656 17.469208 54.190163
44.259834 17.689148 54.89633
43.509926 18.299437 41.593456
44.37436 18.800781 46.021954
43.469707 18.331066 48.066597
44.179256 18.704107 55.111404
44.458546 18.85042 56.512257
43.939625 20.075594 33.834652
43.66233 19.516706 45.117443
43.5323 19.621157 48.17443
43.951916 19.241674 53.952953
44.367085 19.747917 55.689342
44.37969 19.226683 56.22668
44.020725 20.516497 32.684364
43.714165 20.396847 33.692024
43.570534 20.614317 34.175877
43.995327 20.489632 35.25957
44.00339 20.507862 45.299065
44.19236 20.313549 54.05543
44.27633 21.560797 32.010944
43.690113 21.355463 32.91812
43.455658 21.335394 33.28326
44.07606 21.806423 36.29245
43.698624 21.178772 44.810814
43.229023 21.433456 48.91874
43.674786 21.969519 53.269733
43.9919 22.41149 32.742905
43.461918 22.476059 33.68408
43.530666 22.581459 34.23052
43.76836 21.980824 41.05489
43.546967 22.407938 41.420563
43.854755 21.821117 44.649586
43.91325 21.896818 50.49282
44.084675 23.145073 33.103188
44.052933 23.226046 33.52692
43.90558 23.125908 34.231087
43.97256 22.819994 35.012756
43.694096 22.725454 42.489784
44.119568 23.473211 51.484047
43.68596 23.155428 52.296772
43.946342 23.314213 53.31806
44.1726 23.21179 53.87267
44.12938 23.811169 52.42085
45.420887 9.028306 55.352543
45.287884 9.596755 54.814133
45.272377 9.604921 55.445446
45.404713 9.797802 56.036144
45.33088 10.418523 53.85441
45.22686 10.436727 54.607426
45.165077 10.446084 55.387913
45.211807 10.696057 55.876595
45.28905 11.604442 40.760014
45.069603 11.917324 41.61851
45.136948 11.838911 42.151745
45.407173 11.3566885 53.90362
45.264835 11.293126 54.641624
45.19293 11.244106 55.388588
45.359966 11.20434 55.937317
45.239243 12.621067 40.031082
44.996933 12.542591 40.480503
44.628353 12.774238 41.532898
44.646023 12.777806 42.200447
44.873486 12.820768 42.894337
45.027752 13.459904 39.89809
44.641376 13.3004055 40.763245
44.54704 13.486577 41.573387
44.629623 13.483977 42.645054
44.92309 13.323406 43.087868
44.793743 14.384829 39.89614
44.598328 14.31393 40.61824
44.581596 14.309242 42.12626
45.168182 14.888449 43.59661
44.834362 15.270204 45.464645
44.94155 15.2936945 46.35613
44.93769 15.425474 52.881355
44.9606 15.81731 39.80982
44.786938 15.961463 40.64837
44.702923 15.535383 42.143234
44.813168 15.7845335 43.47174
44.60391 15.556637 44.73929
44.553894 15.730311 45.81598
44.837364 15.726942 47.80405
44.94373 15.683043 48.414856
44.94581 15.677647 49.210762
44.379353 15.732289 51.654274
44.602283 15.585183 52.795643
44.3712 15.923577 53.487003
44.92402 15.822766 53.972992
45.162807 17.016987 37.902534
45.110428 16.807846 38.34655
44.612503 16.382702 41.61054
44.510345 16.70179 54.3592
45.073494 17.199423 56.127068
45.035072 17.588354 37.767487
44.719833 17.440126 38.829617
44.518993 17.835094 55.56567
44.61964 17.697086 56.003334
45.15865 18.090786 57.33229
45.226913 18.88707 32.719296
45.0207 18.744518 33.464355
45.031887 19.124136 35.488556
44.85323 18.768814 37.669285
44.635723 18.751589 38.940987
44.733917 18.633625 47.359127
44.49373 18.807947 56.58949
45.040154 18.615133 57.353355
44.991455 19.978352 31.830692
44.88884 19.53567 32.787132
44.50891 19.529152 33.57404
44.734886 19.717402 36.35086
44.601475 19.792305 37.766613
44.73949 19.984797 38.03344
44.92797 19.749788 39.14588
44.674442 19.064354 46.756104
44.430878 19.45982 47.919407
44.760197 19.799374 56.7587
44.819386 19.133398 57.17312
45.199707 19.316776 57.647533
45.083096 20.714666 31.357695
44.732513 20.646208 31.70591
44.60912 20.90445 37.08685
44.69325 20.328604 48.278492
44.997993 20.395678 56.885483
45.08057 21.390173 31.373352
44.754562 21.485914 31.641329
44.692936 21.915854 38.063015
44.494083 21.566452 40.031948
44.33865 21.527647 45.364494
44.85272 21.544361 45.64692
44.425537 21.65191 53.996067
44.967464 21.457794 55.751476
44.833847 22.242994 31.957804
44.899532 22.214478 37.879143
44.523132 22.75232 39.463932
44.61588 22.401659 40.283356
44.5824 22.213625 44.99257
45.30601 21.843052 55.892094
44.482315 23.205723 32.948536
44.4696 23.453907 33.29604
44.64425 23.297077 35.150833
45.202454 23.447416 37.943142
44.92214 23.37596 38.60715
44.84479 23.420036 39.230457
44.17439 22.628357 41.94248
44.991463 23.158226 43.43741
45.195274 23.121984 44.30674
44.64231 23.499153 51.132275
44.77016 23.44209 54.309116
45.478188 23.507824 55.831383
44.802586 23.65209 33.555614
44.64863 23.64689 34.295727
45.29683 24.04067 40.614277
45.429653 24.346344 42.339737
44.75247 24.017609 51.494137
44.62728 24.269012 52.643955
44.619617 24.026108 53.746037
44.906506 23.996716 54.05335
45.48209 25.32868 42.3815
45.312065 24.745037 52.746445
46.11576 8.287936 54.233257
45.988716 8.18443 54.66066
45.96797 8.161875 55.604992
46.117435 8.233073 56.18486
45.89477 8.873697 53.99105
45.71445 8.540948 54.544285
45.619953 8.536999 55.423428
45.886845 8.690572 56.296497
46.143528 8.757136 56.67208
46.141357 9.920981 52.895996
45.74254 9.741216 53.508514
45.49083 9.6293955 54.217216
45.69194 9.455279 56.413403
46.060543 9.468903 56.81164
46.033913 11.183381 40.11738
45.91527 10.994244 40.58312
45.889355 10.790057 41.48478
45.936447 10.926109 42.140156
46.397022 10.944721 48.666107
46.315292 10.995586 49.669666
46.18218 10.696777 52.28347
45.803783 10.712816 52.767986
45.54343 10.512887 53.36572
45.739494 10.406127 56.47441
46.015583 10.298836 56.719456
45.828312 11.590424 39.961998
45.67521 11.4076185 40.297775
45.425568 11.304581 41.177223
45.7151 11.362875 42.526424
45.971565 12.015497 43.092316
46.1021 11.714762 48.941578
46.056816 11.718953 49.339027
46.144226 11.100409 52.23438
45.84618 11.520951 52.78708
45.514957 11.580308 53.6603
45.50842 11.732903 54.484627
45.430588 11.709118 55.762283
45.594673 11.391036 56.080982
46.159172 10.946485 56.733646
45.9042 12.73895 39.4111
45.614662 12.355476 39.8545
45.871986 12.404553 43.25976
46.148968 12.183884 48.792503
46.001125 12.15312 49.58393
46.287697 12.377853 50.38276
45.779644 12.167525 53.641087
45.540043 11.951078 54.390602
45.586655 11.861414 55.56983
46.10747 12.16324 55.895092
45.56237 13.880472 39.19694
45.454918 13.333824 39.55091
46.170372 12.881386 49.45778
45.536045 14.951423 38.923058
45.50768 15.003064 43.99283
45.850155 14.786291 46.701744
45.667366 14.884637 47.263157
45.972237 15.242162 48.193607
[...]
POINT_DATA 4149
SCALARS features_00 float 1
LOOKUP_TABLE default
0.7396252 0.77691686 0.7873753 0.78003496 0.8152027 0.8148564 0.804934 0.8011062 0.8075757 0.8015626 0.5248989 0.57680535 0.5572947 0.6257481 0.6554589 0.65924656 0.6734146 0.69837725 0.74839973 0.72657585 0.6848092 0.7564429 0.7848405 0.73213035 0.69671726 0.7708171 0.78107285 0.7615989 0.7396841 0.7416388 0.40674394 0.43790728 0.45345634 0.48612103 0.4602058 0.45363227 0.51675785 0.49701637 0.63605964 0.5809866 0.5988562 0.5956213 0.56090724 0.6341249 0.590338 0.6290643 0.65299726 0.6543853 0.6673751 0.6682581 0.63462913 0.65579283 0.6531075 0.59321433 0.64351344 0.6869092 0.6260379 0.56357086 0.5867064 0.35559243 0.37287542 0.30948752 0.3046776 0.27126607 0.2006559 0.21239239 0.2693316 0.39623836 0.38834175 0.39427775 0.42610645 0.44005066 0.32050362 0.20082553 0.49183875 0.5480615 0.50942236 0.45316386 0.4274879 0.49504083 0.4522185 0.5595466 0.54142797 0.56866086 0.5409284 0.5983013 0.5994141 0.543494 0.5790945 0.6277875 0.5231052 0.5488143 0.48130113 0.63536763 0.6122695 0.4842626 0.5305774 0.5781646 0.58274245 0.49755287 0.5095225 0.48739758 0.45585847 0.414124 0.37091634 0.36693606 0.30086014 0.1352941 0.19384462 0.25019622 0.2673246 0.26228037 0.021158718 0.081193164 0.14011452 0.12131201 0.13596302 0.17040043 0.19722763 0.25465712 0.26829353 0.23500447 0.21446946 0.13010132 0.21346481 0.16407272 0.21242614 0.2576879 -0.19481677 0.30546483 0.24103826 0.3264865 0.48665008 0.24838191 0.307204 0.06567539 0.23560643 0.30269247 0.5814433 0.52214694 0.5060295 0.3898839 0.29597658 0.040944714 0.68612564 0.62511706 0.59345245 0.32782298 0.3415594 0.47282985 0.14253044 0.69606674 0.6550778 0.6459892 0.3142689 0.3756454 0.29113972 0.23974574 0.68326414 0.6728021 0.6602603 0.6376307 0.43482053 0.2464909 0.35816136 0.3462625 0.25574213 0.3593086 0.7156284 0.65685856 0.7028053 0.690447 0.5252495 0.60082173 0.6535503 0.64629567 0.67936254 0.6646958 0.69357216 0.49366033 0.5654526 0.611349 0.62248737 0.5597899 0.56701493 0.49680728 0.477768 0.47637075 0.4687169 0.47049546 0.40033567 0.3270625 0.3462198 0.3730573 0.350195 0.24720876 0.035778284 0.086877786 0.071127824 0.21836035 0.1757472 0.12932113 0.076793246 0.029589958 0.05861994 0.118168 -0.034859248 -0.020536207 0.014451362 0.22434323 0.23840338 0.25382364 0.23063089 0.16656631 0.18048033 0.023321401 0.22631554 0.2993622 0.20305961 0.19524078 0.27393275 0.30285597 0.31743774 0.4350545 0.3993089 0.28323224 0.13298082 0.15099885 -0.17298153 0.3288533 0.3224107 0.53086805 0.47824347 0.4505363 0.16426869 0.08634679 0.08326103 0.083056554 -0.31322843 0.06904308 0.28170052 0.32130122 0.29466638 0.5964962 0.5957916 0.0830793 0.13276353 0.23848885 0.6254995 0.6483443 0.09048008 0.058259696 0.2577555 0.2082623 0.09060122 0.0403236 0.68836665 0.13422668 0.064720534 0.02068057 0.21982613 -0.02052847 0.68200266 0.66637594 0.59904706 0.23541033 0.17087334 0.117336065 0.31787547 0.1522744 0.15482567 0.14374667 0.13363907 0.07297753 0.6317483 0.6248128 0.11274201 0.27572325 0.2426067 0.32356772 0.22821008 0.15544875 0.4251992 0.19463232 0.58859015 0.6540961 0.7068889 0.69405866 0.5514595 0.638364 0.715521 0.7023114 0.6774291 0.406339 0.49053973 0.5815524 0.691226 0.6647221 0.70803535 0.74834645 0.8096205 0.8321259 0.44952068 0.44919086 0.35710216 0.43012616 0.4769864 0.64128864 0.6315104 0.6609628 0.6870762 0.74168396 0.7846769 0.6775475 0.45992917 0.46209776 0.35719046 0.39762682 0.45414892 0.5152031 0.59702986 0.6086783 0.59271723 0.5578833 0.59530556 0.6302186 0.42223668 0.41956034 0.33513102 0.3912112 0.4888482 0.5787039 0.55778587 0.41043657 0.48426175 0.34753495 0.29133636 0.028517291 -0.020580266 -0.057103295 -0.11973311 0.10690822 0.12979063 0.18625008 0.082506865 0.19109526 0.17762014 0.12979417 0.19345778 0.1287365 0.21862149 0.16531552 0.4199782 0.33188337 0.12864351 0.08623256 0.2678122 0.18747926 0.45086288 0.43573856 0.18170732 0.4954821 0.253924 0.58955586 0.17086442 0.3122399 0.43786198 0.60339296 0.064725086 -0.049390666 -0.11824106 0.14243092 -0.04922471 0.1377383 0.2868992 0.6487136 0.6110269 -0.07464922 0.24723816 0.36615115 0.35772815 0.5480902 0.47691196 0.46758837 0.17591937 0.28422487 0.24030264 0.006921731 0.076311186 0.20926274 0.31178898 0.37823248 0.426593 0.42509207 0.3754204 0.3653203 0.44235116 0.38286412 0.36628693 0.28945178 0.07670129 0.14534412 0.18356484 0.35075554 0.41098228 0.4488628 0.45322362 0.48008052 0.529878 0.5390919 0.47750503 0.40731037 0.4063648 0.43340856 0.52983457 0.5561354 0.5733141 0.54765385 0.52915716 0.5555903 0.6049175 0.64625007 0.6526705 0.3976053 0.43074948 0.6706118 0.6351481 0.8227214 0.34848952 0.3110574 0.19625345 0.6279973 0.7076838 0.7783336 0.84429646 0.8586266 0.75634074 0.39825335 0.4012539 0.39768988 0.32264686 0.60075676 0.6061675 0.65811986 0.4061461 0.56607425 0.5343859 0.49598205 0.53679425 0.18974589 0.31199768 0.08192608 -0.11932272 -0.008992702 0.25373763 0.23745966 0.051539015 0.16890222 0.23975408 0.4721921 0.26379213 0.12754199 -0.032076105 -0.04408907 -0.30442598 0.1985987 0.03760031 0.16233692 0.09618189 0.47929227 0.4522949 0.3606957 0.2053805 0.04291077 0.10183174 0.07241816 0.46695304 0.14965194 0.13623564 0.30687532 0.44586992 0.43607324 0.5330774 -0.4985273 0.49281076 0.55465186 0.5992445 0.5614646 -0.32565525 0.46296364 0.5030683 0.5951959 0.570876 0.047970735 -0.22878689 0.22256505 0.21158125 0.43249273 0.46133146 0.49024177 0.37628683 -0.100681044 0.23984973 0.30110842 0.11820921 0.1420221 0.13807887 0.16599858 0.41440117 0.38175297 0.25047103 0.280297 0.2776423 0.36849272 0.2806145 0.059944693 0.44035023 0.4047253 0.46673688 0.45146912 0.5240838 0.43948898 0.4350278 0.46009153 -0.031892322 -0.101040184 0.049199294 0.16590387 0.29316956 0.38937962 0.3944425 0.4058406 0.55799735 0.6333147 0.6367521 0.5757502 0.57875377 0.55943274 0.4843296 0.2841913 0.33926958 0.3559276 0.6894869 0.6783717 0.55613875 0.5431452 0.4828114 0.5441164 0.5315803 0.54358286 0.122927524 0.12203175 0.5268954 0.1795888 0.25715184 0.19612491 0.12354176 -0.08301636 0.5499015 0.6895919 0.7939302 0.8600544 0.85776144 0.19399703 0.28077054 0.4962198 0.6337532 0.6492381 0.16867378 0.46604764 0.49179533 0.48631334 -0.09504691 -0.14761597 0.45172882 0.30316162 0.29755542 -0.12457728 -0.1068407 0.22884506 0.22744296 0.1971767 0.20012733 0.09109283 0.13486862 0.29803252 0.1658555 -0.055233628 -0.026044086 0.014305434 0.47791064 0.43399107 0.39115876 0.42703295 0.4585416 0.22363502 0.33853006 0.42436692 0.4786295 0.52856386 0.5385138 0.60119414 0.5640869 -0.49682856 0.5710263 0.5822942 -0.42426237 0.2615619 0.44977918 0.49292243 0.30399632 0.0906191 0.16472839 -0.029880999 0.17837523 0.17167674 0.11715664 0.3264958 0.1617231 0.17575365 0.3748749 0.3081726 0.5016414 0.49226004 -0.08250382 0.045850985 0.12120513 0.3729412 0.55503726 0.62924516 0.60887945 0.56617534 0.056831587 0.21271324 0.27473572 0.27391684 0.31245634 0.28331894 0.7085 0.7660681 0.7617106 0.66804135 0.55851734 0.56083506 0.5481262 0.4200335 0.3649149 0.20358405 0.5363536 0.5143696 0.47791648 0.28172678 0.13510609 0.17627436 0.12557949 0.24956012 0.2701953 0.020631224 0.06850657 0.06881584 0.05965016 0.18990664 0.1692462 0.20935586 0.067885056 0.03664372 -0.09767312 0.22651471 0.07146317 0.14063081 -0.19385283 0.7910293 0.8153336 0.03512973 0.16599068 0.33250445 0.63342315 0.6973275 0.7427714 0.7461225 -0.090649806 0.25696105 0.4766921 0.66863406 0.3676469 0.2632048 0.18479902 0.27196932 0.27053735 0.17353055 0.13105838 0.113347575 0.37484 0.32998574 0.05601331 -0.023425266 0.4478849 0.40753698 -0.020548651 0.19103958 0.2811124 0.41630858 0.43257847 0.22829399 0.22475743 0.36949164 0.38583726 0.43363607 0.52510136 0.28516474 0.39752775 0.3919848 0.6722505 0.3395349 7.1167946e-05 -0.15586975 -0.19148275 0.61799324 0.65547144 0.08032057 -0.42106023 0.107693866 0.14015858 0.5735495 0.61200297 0.13997526 0.1516747 0.1092629 0.1635564 0.4650306 0.08700705 0.09900869 0.5923296 0.62830424 0.5846169 0.48906195 0.54465723 0.15976816 0.22917345 0.23487563 0.16362526 0.09671523 0.692314 0.7789564 0.75636554 0.62934613 0.50462985 0.14731358 0.07730203 0.14589962 0.17426232 0.49302265 0.44845536 0.38396427 0.26849884 0.3460164 0.33187786 0.24743357 0.25546205 0.25466517 0.25680026 0.28143466 0.25550896 0.2839402 0.23239422 0.24752828 0.26511645 0.247805 0.27129045 0.19698629 0.18693641 0.14457265 0.26503626 0.29509157 0.37161428 -0.00076403655 0.05264163 0.055475898 0.2786274 0.35310495 0.2967593 0.006806232 0.040494364 0.22790529 0.21387213 0.014777431 -0.0939991 -0.08823137 -0.10297642 0.18420011 0.3258767 0.42040947 0.5150434 0.16282918 0.030462049 0.2359379 0.29160377 0.36486188 0.046628542 0.0051927567 0.26929998 -0.06850156 0.24531354 0.13689548 -0.04866344 0.1963205 0.3740607 0.2522648 0.26440525 0.15577793 -0.027972829 0.22095597 0.30701566 0.3826273 0.41005656 0.41677946 0.36075443 0.26176053 0.38185942 0.38185441 0.38199544 0.3928213 0.18286258 0.30292207 0.38705224 0.22786093 0.4324879 0.48192564 0.6653122 0.3632746 0.5309713 0.6233586 0.70190585 0.7347745 0.7733364 0.5052127 -0.2081441 -0.05986812 0.2558928 0.5464452 0.64817786 0.70301116 0.727985 0.48923188 0.3319469 0.2647596 -0.09784478 0.46425796 0.58478844 0.6166122 0.08378455 -0.29266372 0.377016 0.41376513 0.4503823 0.5037345 0.53431827 0.40737012 0.38077542 0.45130986 0.3206812 0.08770348 0.15219732 0.34250963 0.40009588 0.4205872 0.53657866 0.59799325 0.59624016 0.490878 0.13560078 0.093128204 0.39536706 0.6597677 0.7346756 0.71342933 0.62492204 0.44664592 0.36515677 0.08937837 0.087751865 0.12622379 0.15112424 0.128924 0.12139796 0.09396159 0.36702484 0.3901036 0.3049705 0.19375083 0.14492033 0.07724309 0.46762228 0.39737216 0.3935605 0.3973945 0.20650418 0.6445802 0.5189692 0.45372576 0.38063747 0.3589621 0.3412695 0.2543651 0.23626232 0.20476602 0.19721633 0.27385914 0.5600812 0.39695868 0.22593597 0.27987528 0.37175256 0.4194171 0.31950516 0.19806592 0.39215696 0.40256867 0.40839255 0.060480606 0.36663285 0.31257895 0.25249836 0.17376997 -0.13683152 0.05941741 0.17417377 0.28174785 0.5710923 -0.012406178 0.033689372 0.18066433 0.3308664 0.5049806 0.57457936 0.58866256 0.5003327 0.15765706 0.4520656 0.5504641 0.30635852 0.4117532 0.40939087 0.15012503 0.33221775 0.17384379 0.23305294 0.010382496 0.30708656 0.35188693 0.31886902 0.17287207 0.032070607 0.20549206 0.3709171 0.4006525 0.3356223 0.3274228 0.40540606 0.3758061 0.35941422 0.34881857 0.3577488 0.37932968 0.3826583 0.27073333 0.2839775 0.4159962 0.1651047 0.45944864 -0.056930933 0.5252402 0.065240376 -0.340591 0.562597 0.68865377 0.76761997 0.8033488 0.5413857 0.42498773 0.75713634 0.80421925 0.81490564 0.54600096 0.53595173 0.76344734 0.78923494 0.53780466 0.5121429 0.4411435 0.13499342 -0.00031225383 0.6191224 0.65455025 0.034368493 -0.33719343 -0.27469075 0.49882907 0.5215249 0.58162 -0.1269295 -0.07415783 0.41127723 0.44053352 0.47877175 0.53724927 0.4663299 0.37967283 0.40589368 0.40710708 0.15353595 0.09223701 0.09301435 0.15148653 0.18653795 0.25725806 0.22953656 0.18773334 0.13273466 0.09533524 0.44607687 0.4330938 0.41736215 0.36383402 0.80670327 0.78902113 0.6964612 0.5508898 0.45101106 0.4306095 0.41702628 0.37455416 0.26274282 0.19467813 0.19810882 0.78513443 0.7521862 0.2308107 0.72153836 0.37477946 0.40476054 0.4234358 0.41914615 0.38803294 0.30650043 0.018282741 0.30558875 0.5096879 0.38513464 0.25583416 0.20349617 0.5865344 0.5990764 0.576126 0.60045385 0.5679549 0.610446 0.611921 0.54966474 0.5760857 0.5718714 0.58820367 0.47848707 0.47738034 0.41479313 -0.09193084 0.25461346 0.39845115 0.38066244 -0.14455451 -0.14252089 0.3538639 0.37637383 0.4058637 0.4057457 0.35835373 0.43023717 0.4168601 0.43351227 0.3166792 0.41966063 0.23273672 0.43384832 0.43691957 0.14202267 0.49302718 -0.23779157 0.5427226 -0.39126122 0.7697891 0.8226359 0.54679686 0.5451899 0.82669544 0.548433 0.55488175 0.7905179 0.5676255 0.5569616 0.50960475 0.4734974 0.015587635 -0.085195005 0.6619034 0.7121301 0.48461768 0.18586333 0.48383087 0.5813948 0.2845594 0.20870854 0.190422 0.13737187 -0.018074133 0.41306794 0.41623217 0.48584938 0.2839339 0.22783102 0.024530843 0.25222108 0.23849222 0.118770145 0.20726009 0.3149941 0.35509768 0.39971465 0.115226485 0.10836162 0.119761996 0.11634738 0.09447488 -0.088259965 -0.0007402599 0.12547587 0.11927887 0.13458374 0.18281202 0.2204755 0.21118936 0.15982886 0.12633123 0.15178254 0.16609111 0.18803768 0.534293 0.46633893 0.41886866 0.39832336 0.3573884 0.2517416 0.3314924 0.40601426 0.48933333 0.5291413 0.80644727 0.7969823 0.71328235 0.5802997 0.24444444 0.2549001 0.360093 0.53095406 0.53117496 0.8034234 0.7823105 0.36189264 0.72967064 0.30526128 0.3653224 0.30402133 0.3725397 0.39367938 0.33479095 0.5472474 0.48144874 0.41894516 0.5148411 0.5995299 0.5597733 0.56408954 0.6118243 0.61927307 0.5269675 0.5917328 0.34785908 0.3647583 0.5164247 0.0046286434 0.19718023 -0.05575259 0.11425312 0.4174137 0.40753663 0.13721977 -0.11563287 0.2306769 0.44501957 0.41950497 0.27713686 0.47580197 0.47465634 0.2236628 0.45709056 0.47665238 0.0744742 0.4803834 -0.026579823 0.51335263 -0.052277237 0.53919804 0.529221 0.69787776 0.7406629 0.77955157 0.54369795 0.53838587 0.5324248 0.8033911 0.8130728 0.5433121 0.5492709 0.44676796 0.7636522 0.5597422 0.5376421 0.5320482 0.14103821 0.6302534 0.6855462 0.31991035 0.25611034 0.51158464 0.57528293 0.31620649 0.4910126 0.3396787 0.3224362 0.25341073 0.20578432 0.3161844 0.33467638 0.085673854 0.055470347 0.09684682 0.32546252 0.3731243 0.056437824 0.03230507 -0.0057595894 0.066819325 0.096656546 0.14596671 0.22551976 0.19967347 0.16231504 0.17567883 0.2620812 0.2872523 0.26498246 0.23274952 0.23998296 0.24249573 0.31359422 0.48489168 0.4506084 0.40904635 0.3702421 0.3473071 0.44620004 0.50752264 0.60060996 0.67014194 0.71800536 0.7827078 0.7452147 0.65852314 0.52844405 0.44822797 0.36079574 0.3557961 0.27301365 0.30952156 0.6548152 0.77284294 0.6897994 0.7226851 0.26121414 0.2925071 0.18587288 0.32643488 0.32520697 0.37028867 0.30114892 0.2699541 0.46702814 0.42338693 0.40477097 0.5394838 0.48801404 0.44421926 0.6114588 0.46215385 0.6033176 0.30353647 0.45783365 0.08720924 -0.017047301 0.07790532 0.09786363 -0.05805496 -0.041301828 0.3762896 0.22489291 0.48731416 0.4348915 -0.016739585 0.48188782 0.45677716 0.42398953 -0.039226122 0.48318803 0.4798677 0.402237 0.27961814 0.06644362 0.44927314 0.3383603 0.11772721 0.03747173 0.5115761 0.48099285 0.3391407 0.11596291 -0.015317842 0.6387761 0.73698 0.49034595 0.49869066 0.09950938 0.74582136 0.76401156 0.72608376 0.24384572 0.62458974 0.6746702 0.3642615 0.51112425 0.57618606 0.4306414 0.10792963 0.34061056 0.36588013 0.44623375 0.43473196 0.3530631 0.31434172 0.28247708 0.2856714 0.33436602 0.3799097 0.2949282 0.0048388094 -0.06984438 0.23350039 0.24478331 0.30605665 0.32696626 -0.009939969 -0.17441493 0.046187755 0.1421755 0.21879677 0.3352587 0.3695105 0.22405323 0.25339535 0.2460355 0.5086591 0.49171716 0.686937 0.73933065 0.50570303 0.5850416 0.67232627 0.7344103 0.74810576 0.7362879 0.65231 0.57392794 0.47486243 0.40572554 0.37695816 0.24503064 0.7155548 0.6909109 0.671106 0.45469707 0.40648752 0.38800824 0.29819667 0.53483 0.6005243 0.2369419 0.30585766 0.41492608 0.2764795 0.28163397 0.21111986 0.32239622 0.22758795 0.19832382 0.15623772 0.19052722 0.37336427 0.3356641 0.097758874 0.19817995 0.40742302 0.28584898 -0.02655232 0.36720014 0.072492175 0.0017192215 0.10161373 0.060835607 0.51940525 0.63321173 0.66817665 0.029740425 -0.097106084 -0.10621601 0.41644037 0.56599855 0.657021 0.6686977 -0.01512811 -0.16474962 -0.08944919 0.44719303 0.58911645 0.6367078 0.64929175 0.3868934 0.36068368 0.53116465 -0.10573065 -0.11592187 0.15414907 0.07644548 0.049475092 -0.06541973 -0.12205876 0.07075844 0.69946414 0.07308203 0.07126911 0.68262196 0.6949433 0.25852376 0.52415437 0.6234145 0.41625953 0.3036709 0.4382003 0.55692804 0.4916709 0.056776114 -0.008209705 -0.03286706 0.10908278 0.20201443 0.5017886 0.49377343 0.45250624 0.41795963 0.3273757 0.3471073 0.34465346 0.32945946 0.27891457 -0.07413348 -0.23644984 -0.15095238 0.029056093 0.3690237 0.3179492 0.33106166 -0.05780489 -0.036216564 -0.0537468 0.085045524 0.28521952 0.35937148 0.23123884 0.24000092 0.25971287 0.434924 0.6023456 0.5188213 0.4179526 0.6628783 0.6804147 0.6852948 0.6407623 0.6978358 0.6994027 0.749619 0.52284294 0.5903437 0.6884772 0.76372874 0.7580515 0.43019658 0.5027365 0.7337266 0.6936799 0.25204548 0.13092451 0.18702385 0.3149993 0.60615194 -0.082506835 -0.15828572 0.13702154 0.5470598 -0.004775226 0.4437026 -0.08010656 0.119547 0.15663855 0.08576452 -0.08441891 0.031430513 0.24557215 0.23530073 -0.045079827 -0.22880629 -0.19805723 -0.02268064 0.51575804 0.44162214 0.40253884 0.3214221 -0.06468034 0.04252081 0.0076485686 -0.18881536 0.07030208 0.49581903 0.62336767 0.651652 -0.60449785 0.6427208 0.60645443 -0.0751538 -0.49224356 0.59948766 0.5808945 -0.03196937 0.54536426 0.5140466 -0.18387151 0.19162151 0.24161135 -0.21556363 0.084991805 0.071010396 0.5551243 0.2948118 0.57171327 0.39791608 0.4293708 0.04299899 0.08814679 0.36133862 0.52319455 0.5427268 0.108417206 -0.0150223635 -0.039913595 0.54695076 0.5325601 0.48265606 0.45872107 0.37101978 0.37058675 0.3000038 -0.5734447 -0.34513193 -0.0013155714 0.044161446 -0.4355267 -0.47325897 0.055105846 0.19490783 0.20950985 0.3394018 0.4168974 0.39789557 0.53120506 0.5345826 0.52659714 0.5440503 0.40506482 0.6600176 0.68888277 0.641714 0.6762986 0.6956533 0.697622 0.58948535 0.6143082 0.76766706 0.7663249 0.38380492 0.47161007 0.66635823 0.6930966 0.7304113 0.70778656 0.23568982 0.37572357 0.68793416 0.073869556 0.21361011 0.6403065 0.061060496 0.111510076 0.11253142 0.032943316 -0.07879431 0.13594133 0.18052253 0.278314 0.6273136 -0.07354276 0.54382133 -0.16943794 -0.09090884 0.2520204 0.080795616 0.023452342 -0.025620744 -0.099069454 -0.5066787 -0.48096672 -0.16551083 0.63159215 -0.050103962 0.21091712 0.46565425 0.51127726 0.46215963 -0.0032843798 -0.37846142 -0.4247749 -0.3136204 0.32270214 -0.20453165 0.2127046 0.21621503 -0.06719926 0.57827526 0.5912608 -0.08584628 0.56675225 0.5499984 -0.12662311 0.53197265 0.5117948 0.084128395 0.4771518 -0.10465748 0.3663792 -0.061463483 0.26412305 0.3018271 0.19955361 0.084562734 0.33145696 -0.021647915 0.11098787 -0.50172 0.06526261 0.05343695 0.24014078 0.06268509 -0.05805599 -0.06036882 -0.0051765144 0.03029818 0.42254302 0.44014025 0.2664704 0.14627258 0.10275725 -0.035039052 -0.46505448 -0.06726916 -0.038477883 0.51989275 0.5641422 0.43645626 0.37415993 -0.012845714 0.5586158 0.5722507 0.5619378 0.5182345 0.45725074 0.41895124 -0.13513269 -0.5750849 -0.008271217 -0.0016980767 0.04909513 0.21812332 0.18467666 0.14470395 0.3275013 0.3159456 0.35577917 0.37194014 0.27170372 0.5289625 0.5383619 0.3735717 0.48426098 0.51812124 0.5377177 0.55984735 0.50761557 0.3966814 0.6217468 0.64881086 0.65068036 0.6031879 0.53476226 0.5517648 0.68125635 0.67808896 0.5617369 0.68568444 0.70251155 0.3861388 0.45220247 0.65334094 0.6869884 0.06713432 0.13404296 0.12816477 0.07733659 0.3426805 0.5389166 0.66574883 -0.0071493387 0.0050285906 -0.09839161 -0.09792331 0.16585797 -0.2145897 -0.234561 0.007227324 0.09956989 0.2728257 0.2020829 -0.16153248 -0.11274549 0.42465192 0.66919863 0.6369228 0.5278181 0.19828326 -0.23284617 -0.30179366 0.161192 0.4185694 0.4983737 0.40859255 0.0544979 -0.0049650595 -0.045763336 0.08954336 0.34365004 -0.50302804 0.25636786 0.8242701 0.6794174 0.47284123 0.20501296 0.019372065 0.48467168 0.8832176 0.70930016 0.5991018 0.2422909 0.3849323 0.4218297 0.81378806 0.7290521 0.53945905 0.3953117 0.65554845 0.56920743 0.36788708 0.3970213 0.27220327 0.120620534 0.13857046 0.028728083 0.36554518 -0.026607698 0.33833495 -0.40559074 -0.7251867 0.27648747 -0.0729853 -0.13161375 0.101316124 0.11974016 0.058587577 -0.026127025 0.07652903 0.05690237 0.07361127 -0.070355244 0.120598584 0.28804693 0.38718584 0.27833852 0.15387158 0.11268428 -0.02924487 0.08823123 0.06290446 0.47703332 0.51018184 0.4304854 0.3837215 