# vtk DataFile Version 2.0
Really cool data
ASCII
DATASET POLYDATA
POINTS 4490 float
10.1525755 45.634354 10.408132
10.301146 45.726604 11.217752
10.283117 46.49632 9.611896
10.202646 46.85775 10.318618
10.345898 46.342735 11.385878
10.429303 47.197006 9.635331
10.245273 47.02686 10.50568
10.396425 46.89111 11.117925
11.443204 29.687387 12.043138
11.37148 29.60875 12.668401
11.398898 29.962635 13.01584
11.371576 30.343248 12.506259
11.394338 30.153147 13.132206
11.421081 43.79937 11.761562
11.355265 44.055283 12.430775
11.070527 44.997402 8.796675
11.180679 44.442787 9.298068
10.59501 44.765064 10.760489
10.668413 44.85514 11.350091
11.2871 44.4338 12.3043785
10.832626 46.007206 8.632641
11.0553465 46.222008 8.250918
10.57411 46.815067 11.592901
10.769522 47.130512 9.055025
10.614929 47.440414 9.54618
10.604292 47.65174 10.1985235
10.696542 47.29935 11.376722
10.942943 47.146935 11.831869
10.834826 47.729935 9.674827
10.80214 47.793304 10.164178
12.311207 24.141348 11.460423
12.150966 24.80076 10.798416
12.107758 24.620016 11.534021
12.313375 24.529762 12.289281
12.388189 25.098705 13.278798
12.411132 25.542196 9.099537
12.260808 25.731539 9.896918
12.0164995 25.545252 10.937322
11.863883 25.729609 11.923247
11.933637 25.246492 12.370952
12.337773 25.156237 13.230317
12.387495 26.745066 10.256575
11.966688 26.3752 12.9548855
12.4405 27.80565 7.944167
12.210994 27.611477 11.268167
12.237449 26.905312 13.194543
12.370658 28.6383 7.850744
12.328554 28.188442 8.229421
11.853415 28.98293 13.247458
12.409341 29.11339 8.063766
12.467285 29.42158 8.637767
11.734846 29.584753 10.929208
11.675429 29.583426 11.244135
11.666683 29.521107 13.50806
11.887741 29.709322 13.895874
12.403982 30.305048 9.071775
11.652936 30.25381 10.753255
11.5629635 30.339174 11.548813
11.494011 30.699936 12.33767
11.59543 30.518757 13.410147
11.943884 30.476646 13.945742
12.338428 31.234444 9.692753
11.895987 31.326757 10.755185
11.763602 31.274296 11.34844
11.714367 31.343744 12.363341
11.888425 31.32928 13.389543
12.075077 31.185213 13.817479
12.261057 32.029644 12.758917
12.229064 31.862753 13.438758
12.160847 43.35655 10.023413
12.130421 42.957657 11.761827
12.233994 42.87393 11.970786
12.285771 43.75867 7.626331
11.771128 43.797977 8.709812
11.859782 43.497635 9.546879
11.546484 43.726646 10.995351
11.502839 43.608555 11.865601
11.85128 43.4542 12.551269
12.140717 43.850925 13.251494
12.060206 45.09279 6.953354
11.588454 44.275135 8.264752
11.828971 44.39006 13.151808
11.849649 45.472973 7.082936
11.586732 45.50941 7.483979
12.049383 45.133648 13.255643
12.0578575 46.38983 6.895037
11.676801 46.340015 12.48825
12.22362 46.915756 7.0449867
12.07102 47.205124 7.6180325
11.930433 47.648388 8.643375
11.521581 47.950977 9.618553
11.483802 48.107418 10.307485
11.532214 47.924133 11.276912
11.8621855 47.736732 11.8274765
13.32905 21.089863 13.86593
13.384018 20.941484 14.616198
13.331505 21.856863 12.765869
13.098788 21.648575 13.969538
13.176618 21.589636 14.313462
13.269794 22.787733 11.03296
13.094897 22.98802 11.988809
13.228176 22.403467 12.548754
13.149583 22.89629 13.371119
13.428694 22.084908 15.092212
12.7696905 23.994698 10.563307
13.024254 23.549719 12.864786
13.436678 25.047068 5.712138
13.104013 24.920624 7.3541074
13.232416 24.855097 8.603057
12.480185 25.138441 9.745515
12.456847 24.620815 10.231161
12.717802 24.873405 13.348126
13.298607 24.507362 13.997586
13.222063 25.50889 5.8432055
13.00529 25.678469 6.397567
12.669893 25.85191 7.4695597
12.472072 25.425833 13.394715
13.078778 26.115503 6.0586267
12.877102 26.49381 6.5821614
12.544338 26.124538 7.6550965
12.996599 27.234646 6.771498
12.569199 27.009914 7.276892
12.551704 27.595263 8.274396
12.524974 27.355743 10.9270735
12.491226 27.214008 13.224661
13.031053 28.537846 6.800047
12.503525 28.739162 7.6504316
12.902014 29.121847 14.167168
12.6582365 29.488718 7.559443
12.547305 29.993303 14.299543
13.350647 30.671844 7.791801
12.614101 30.530687 8.6111
12.481629 30.232853 9.517461
12.4548235 30.363665 14.319647
12.499796 31.471579 13.942839
13.346546 31.986977 8.767606
12.497575 32.551117 10.573489
12.762808 32.54366 12.679064
12.87164 32.472534 13.063418
12.917033 31.960857 13.837097
12.899126 33.174652 10.565901
12.975754 33.376232 11.399417
12.825514 32.893703 12.310063
13.056876 32.64396 13.186369
13.287477 33.746517 10.986564
13.478478 38.435402 5.268242
13.393333 38.96 6.215389
13.425672 39.19493 5.900811
13.435 39.21651 6.126674
13.117972 42.995865 8.607877
12.729306 43.01385 9.831909
12.368272 42.88491 11.101429
12.557316 42.72767 11.80472
12.824529 43.145824 13.144711
13.103131 43.38912 6.5907617
12.539902 43.583164 13.395542
12.961248 43.825554 13.6858835
12.57883 44.62903 6.572945
12.411549 44.304604 13.531576
12.800579 44.51019 13.706699
12.74033 45.92008 6.3102074
12.348816 45.379993 6.51048
12.70233 45.503963 13.339685
12.690119 46.28031 6.3607035
12.518572 46.497658 6.5426016
12.826943 47.180107 6.7744193
12.478533 47.258266 7.2204514
12.662225 47.360962 12.126508
12.920529 47.768192 8.066083
12.1284 47.941284 9.226536
12.344482 48.053528 10.570233
12.260949 47.92663 11.416587
14.02423 20.170385 14.476004
14.258905 20.175327 15.613067
13.9879 20.779377 13.079238
13.74155 20.615221 13.690859
13.617599 20.591032 14.497158
13.765475 20.939827 15.479655
14.194311 20.813524 16.484524
14.341218 20.907103 17.103529
14.233645 22.184034 4.9147644
14.121119 22.251202 5.561823
14.180574 22.25757 6.1341634
13.858727 21.802053 11.711337
13.899773 21.652876 12.304266
13.899627 21.49141 16.181107
14.3183975 21.427067 17.08847
14.219236 22.877003 4.205662
13.995269 22.709044 4.609074
13.847565 22.653416 5.3669214
14.042297 22.633791 6.3848615
14.008182 22.614782 10.184295
13.605965 22.512764 10.882518
13.586449 22.683006 15.361978
13.752475 22.265343 15.824612
14.120093 23.489746 4.1587124
13.760913 23.387608 4.74353
13.630001 23.263739 5.349705
13.62799 23.723505 6.1235766
14.261457 23.434534 7.565979
14.056161 24.713217 4.198739
13.853881 24.29401 4.587265
13.550023 24.448359 5.2758665
14.26456 25.803514 4.231616
13.923754 25.248182 4.5565257
13.471443 25.65712 5.458732
13.556453 25.22956 14.267925
13.469892 26.09896 5.7195754
13.980817 26.9614 5.2761903
13.470761 27.06688 6.0210223
13.750545 28.48512 13.883076
14.226816 29.428862 5.706332
13.727017 29.634138 14.464945
13.950485 30.027767 6.675915
13.443556 31.78841 8.213612
13.524574 31.692152 14.136307
14.343308 32.19612 7.081818
13.530722 31.87806 8.136546
13.968359 33.040733 8.982585
13.448075 33.50759 10.020834
13.580223 33.532036 12.279237
13.930482 33.0841 13.184236
13.654322 33.85333 11.555562
13.674627 33.702694 12.234452
14.068574 37.227554 3.9465744
13.86994 37.2354 4.8321414
13.924218 37.195656 5.212987
13.981031 37.58509 3.9520087
13.802048 37.538967 4.406071
13.807505 37.592197 5.587913
13.770583 38.115986 6.702158
14.2772045 38.139835 7.6506414
13.961465 38.496235 3.9001963
13.633395 38.553555 4.512946
13.591692 38.535576 5.3186154
13.497398 38.86369 6.2031164
13.709127 38.75563 7.0203595
14.134678 39.497673 4.166335
14.067469 39.374615 4.3587155
13.584063 39.686703 5.3017836
13.552706 39.388382 6.6736474
14.396846 39.959934 8.462934
13.892255 40.328186 5.2078753
14.150338 40.9699 6.5615683
14.042926 41.82426 8.381848
13.751082 43.133816 5.8577642
13.2444935 42.74399 12.56317
13.276411 42.96954 13.035125
13.912798 43.462074 5.671043
13.475484 43.725147 13.686812
13.535482 44.46249 13.753997
13.597847 45.64859 6.027332
13.452175 45.414787 13.427566
13.618907 44.994473 13.614703
13.482322 46.65675 6.200717
13.4620285 46.932426 6.3183265
13.540731 47.409286 6.7451873
13.787385 47.52962 11.461731
13.309479 46.974766 12.620927
13.621589 46.702053 12.767558
13.571587 47.59977 7.0463257
13.526148 47.697876 7.54955
13.163333 48.057934 9.763753
13.134159 48.00719 10.460062
13.458162 47.727634 11.109199
15.061694 19.391386 15.2626915
15.21509 19.415667 16.193996
14.707363 20.21241 13.205872
14.996472 19.783272 13.783675
14.696985 19.731947 14.452869
15.079897 19.43514 15.855096
14.753281 19.866781 16.373528
14.911562 20.064848 17.186874
14.5536175 21.071066 12.152433
14.446737 20.611513 12.870689
14.763115 20.583899 17.426977
15.010264 20.805864 17.787857
14.796754 22.319706 4.1992354
14.642853 22.095146 4.6783423
14.604042 21.93854 5.4448576
14.50757 22.181234 6.5085893
14.891717 22.274591 6.92874
14.858486 22.2377 10.296815
14.613963 21.93728 10.559405
14.395093 21.4649 11.595091
14.568954 21.478544 17.454782
14.980343 21.437933 17.786436
14.6377 22.742146 4.0359883
14.393644 22.401443 4.3483863
14.774721 22.7673 10.034603
14.681833 22.019085 17.354809
14.538014 23.411285 3.9160733
14.451043 22.885324 16.176044
14.693794 24.501322 3.79632
14.7734785 25.47809 3.8837492
14.805033 26.589226 4.523677
14.956989 27.463274 15.656633
15.042517 27.179508 15.897451
15.260986 28.644714 4.322164
14.659646 28.553951 4.931094
15.196178 29.79112 4.406929
14.662667 30.924763 5.0834274
14.609202 30.539919 5.2206764
15.038784 31.266506 4.736027
14.591342 31.042168 5.8975654
14.366317 31.181425 14.260053
14.935236 32.245293 5.8777714
15.422111 32.914135 5.4733796
14.537825 33.14678 7.047389
14.557557 33.452595 7.3939114
14.25185 33.58605 12.659277
14.496741 33.365387 13.04026
15.002263 34.78851 8.476779
14.421555 34.104637 10.621704
15.321917 36.049625 2.4988184
15.211224 36.26074 3.6551611
14.757562 36.31187 5.558066
15.048506 35.53638 6.741004
14.913652 35.648804 7.199797
14.940376 35.10085 8.270305
15.1852 36.09605 7.742626
15.0481615 36.667976 7.960584
15.173712 37.858086 2.1236558
14.928463 37.497463 2.5205138
15.108762 38.1907 2.2883637
14.50166 38.704556 3.3010175
14.99396 39.40751 3.0469205
15.222544 39.437416 9.08491
14.754956 40.425556 4.325737
14.615303 40.33693 4.484661
14.691079 42.804005 5.6134033
14.018706 43.115047 13.112076
14.114305 43.556732 13.445237
14.527645 44.09006 5.6032696
14.563194 44.41278 13.342592
14.132265 44.30662 13.66354
14.366982 45.521317 13.161902
14.077042 46.329304 6.1531677
[...]
POINT_DATA 4490
SCALARS features_00 float 1
LOOKUP_TABLE default
0.62314165 0.6261393 0.61868775 0.6420095 0.66343296 0.6389394 0.6563432 0.67657197 0.42615378 0.4765172 0.5353873 0.512021 0.55305 0.48265433 0.5798031 0.479469 0.4072329 0.48524725 0.50175196 0.5597847 0.5901449 0.5774673 0.68554145 0.6250279 0.64071846 0.66231406 0.7007399 0.7154264 0.6412814 0.6613695 0.32736298 0.29590535 0.33522505 0.33183664 0.3218792 0.1756693 0.22242764 0.312936 0.37915415 0.35792133 0.32496127 0.23380202 0.35489708 0.19675326 0.21804172 0.335301 0.1793053 0.18230104 0.46332967 0.16661638 0.16201815 0.29559028 0.33332753 0.532133 0.5629507 0.16496375 0.33581418 0.4213529 0.51242876 0.5816854 0.5974566 0.23249911 0.35975006 0.4386571 0.5427 0.5744013 0.58169746 0.48393857 0.51589084 0.3143676 0.50587624 0.5553583 0.37811956 0.3252603 0.3082357 0.3926356 0.5005721 0.62929666 0.7203549 0.46503073 0.3963334 0.7108762 0.49881777 0.49626133 0.71297276 0.58147985 0.6932433 0.61489666 0.6072514 0.5845941 0.62366545 0.6670211 0.7199114 0.68525285 0.46359152 0.51563233 0.38567606 0.43385 0.45576537 0.40802217 0.34747094 0.35811165 0.29527825 0.47069463 0.28674865 0.2966019 0.34092486 0.23760101 0.2116734 0.20773669 0.24618483 0.30917343 0.24767502 0.2882814 0.24170907 0.21626481 0.30964684 0.24760194 0.22974727 0.20653743 0.2175535 0.21557933 0.18047449 0.2237345 0.31947196 0.18127535 0.17193878 0.48050797 0.1605218 0.5739286 0.13184297 0.14961755 0.18405306 0.5872964 0.538093 0.1573992 0.4052273 0.39557344 0.40169883 0.45121914 0.4032671 0.39449555 0.3713557 0.37769938 0.40136892 0.42811805 0.37463635 0.39151108 0.3775142 0.1851907 0.25918007 0.38757864 0.5365561 0.7390789 0.391774 0.7366823 0.747605 0.4393453 0.7344385 0.7302818 0.5691158 0.5073752 0.68450195 0.596296 0.60483396 0.6339319 0.6254927 0.5575578 0.5776109 0.5821589 0.604255 0.60433626 0.55744076 0.6139552 0.44175416 0.48024884 0.53212833 0.5597517 0.62742716 0.6513382 0.8981296 0.9037328 0.90172505 0.41247043 0.39900506 0.55973935 0.61057955 0.8506614 0.84077823 0.83693385 0.828583 0.46399873 0.4398277 0.4378633 0.5191779 0.78608286 0.73592937 0.7288674 0.5771356 0.6665919 0.5990418 0.5912136 0.46931428 0.50327563 0.4673609 0.31434336 0.20762074 0.27005383 0.269577 0.22234449 0.2964 0.1755462 0.3826052 0.11820666 0.10036901 0.40985918 0.027365921 0.086678214 0.13215016 0.36328825 0.35032183 0.29262412 0.37981337 0.35029003 0.4339021 0.39618242 0.36800185 0.45880997 0.43790138 0.3641578 0.31104362 0.17878404 0.48133266 0.46532506 0.42849338 0.3740151 0.2979116 0.4636783 0.4659533 0.41613322 0.33676308 0.16024768 0.4195869 0.34076568 0.053278327 0.2967578 0.71918154 0.75857294 0.30408078 0.75400734 0.7270609 0.5162184 0.6705003 0.6926205 0.62292147 0.6345655 0.6398337 0.5015922 0.5589674 0.58644235 0.6344323 0.6079141 0.5084877 0.5179235 0.5012267 0.6249131 0.65961426 0.4702508 0.5364267 0.58354187 0.6424101 0.6656821 0.71634376 0.40765142 0.43742368 0.7016148 0.70673907 0.92697185 0.93597823 0.9667299 0.90621865 0.8740293 0.4137728 0.42615765 0.4218017 0.62513596 0.64414 0.8927084 0.8984934 0.3988869 0.5516701 0.8434771 0.44706547 0.75612843 0.64235425 0.41984355 0.15816121 0.18570721 0.2621412 0.21950212 0.30951676 0.23178269 0.22362688 0.2719373 0.13840102 0.22531831 0.12607758 0.1434817 0.026290145 0.015252046 0.29564938 0.24203818 0.04912734 0.37354827 0.5513357 0.39410496 0.2342464 0.016144142 0.032809757 0.04874683 0.04291366 0.029580496 0.48479748 0.5094452 0.47532785 0.48235705 0.44056165 0.10083033 0.3906171 0.41255954 0.15517433 0.78674257 0.76028264 0.22222047 0.66854846 0.7154846 0.62066776 0.56545573 0.6034349 0.6265471 0.61665165 0.5569018 0.47959816 0.52963525 0.5505783 0.5859403 0.44614863 0.457451 0.6052133 0.6404834 0.6743387 0.4771064 0.52576846 0.6778141 0.7271482 0.7530352 0.38149652 0.7417769 0.9432794 0.9691442 0.9933959 0.91491556 0.8885975 0.3826318 0.3789122 0.69443095 0.9227376 0.8459363 0.2626393 0.35624683 0.5318159 0.88243365 0.16573873 0.7816163 -0.013247529 0.69761145 0.5934018 0.42330685 0.17507783 0.17469792 0.26662672 0.17392407 0.331141 0.0622963 0.1322712 0.093297124 0.319534 0.14448693 0.22006747 0.22065815 0.26026583 0.16912368 0.25227123 0.68082523 0.6637901 0.5738267 0.087180644 0.67774713 0.6374116 0.5528658 0.2725515 0.61924475 0.6003363 0.028038628 0.005963303 0.38825148 0.55255693 0.5069071 -0.10389434 0.12287456 0.4679402 -0.060993157 0.43961412 0.40891296 0.388433 0.329805 0.14209321 0.14330983 0.3864426 0.5948682 0.31799698 0.4764528 0.6188607 0.3187263 0.53853154 0.57839906 0.5638399 0.58785427 0.38182932 0.42146045 0.53483224 0.5603781 0.61594945 0.6660489 0.69267863 0.40580732 0.50180745 0.71710527 0.75577974 0.3137601 0.348603 0.9215312 0.87008417 0.82535505 0.6875582 0.9029298 0.87312853 0.7168496 0.70872307 0.57888186 0.8343792 0.6764275 0.34777465 0.20791 -0.18261348 0.047852382 0.73107386 -0.0030006832 0.6893188 0.116145 0.2910258 0.3418107 0.026739545 0.3289718 0.14069872 0.299634 0.2799418 0.6755818 0.6229049 0.23422879 0.2626709 0.70677364 0.67425346 0.16952878 0.68802536 0.36418873 0.35636565 0.64045405 0.4385445 0.43674797 0.5251633 0.23085202 0.46269163 0.49036938 0.47569275 0.43328667 0.46898985 0.4202686 0.4025462 0.36240685 0.032910153 0.08735818 -0.01589971 0.291736 0.13646044 0.39339814 0.19154434 0.4820611 0.44739026 0.5006115 0.44953573 0.4683516 0.51081276 0.53672063 0.5915679 0.63763833 0.46250713 0.49587184 0.5628177 0.6942238 0.32156062 0.7252834 0.75634897 0.30417895 0.6253257 0.55522746 0.40114385 0.086877175 0.30704653 0.64787966 0.5604681 0.43944916 0.3294474 0.09180852 0.62531054 0.4544677 0.36650845 0.3020212 0.046427097 -0.25435126 0.101912566 0.5564702 0.41146687 0.087526955 0.29501903 0.06577034 0.33323193 0.15232632 0.22090235 0.2715959 0.28901243 0.71312547 0.6984569 0.6299425 0.26188976 0.7204533 0.13781229 0.7070099 0.22333272 0.27058876 0.67133725 0.4052984 0.55675673 0.5178341 0.44824177 0.4375238 0.40565753 0.4353937 0.44392666 0.3966306 0.3565577 0.35572177 0.014284357 0.18161511 0.07608626 0.32754514 0.1519002 0.46579525 0.49557054 0.6396104 0.4331352 0.70177186 0.78972995 0.727751 0.5070932 0.4789047 0.41586214 0.42307627 0.56390166 0.39568794 0.36783308 0.42697695 0.37822175 0.45938066 0.41931957 0.41617146 0.2860664 0.3641603 0.31969637 0.39229012 -0.19373056 0.32959557 0.30407292 -0.11736679 -0.15396923 0.18863297 0.2316972 0.07243106 0.09015298 0.27501935 0.2826229 0.28368935 0.29404896 0.31735522 0.27873415 -0.13093941 0.28254238 0.28127372 0.65123 0.4425759 0.2802297 0.69309926 0.65859497 0.19251625 0.7015736 0.1887204 0.63427114 0.33385587 0.50715625 0.36501628 0.33443737 0.38778782 0.24266665 0.16171238 -0.0407394 -0.07317932 0.016621333 0.13470261 0.101709425 0.42801183 0.18871689 0.55912304 0.6740216 0.2896549 0.7259083 0.48459333 0.49292445 0.7818149 0.78321373 0.6763345 0.58318055 0.15801325 0.1438379 0.41864148 0.47753775 0.4234689 0.37855557 0.32711434 0.48505867 0.37737268 0.3768674 0.5252388 0.3446114 0.44035137 0.4873173 -0.13116053 -0.111113094 0.4781584 -0.0068586245 -0.021426931 0.30154955 0.38425365 0.19260189 -0.021045782 0.0046328753 0.24609607 0.22312877 0.18752238 0.34495035 0.13939334 0.34415612 0.28412372 0.28206754 -0.12939571 0.25354373 0.62587243 0.47587502 0.15621464 0.5240029 0.47623062 0.122646615 0.5209534 0.40707695 0.20148608 0.20657343 -0.09076959 0.206722 -0.03216803 -0.055796593 0.25012472 0.052079603 0.54130024 0.64739347 0.7356287 0.72701 0.5138732 0.4743915 0.7617632 0.74895173 0.7060659 0.5708008 0.64212537 0.08927275 0.5045544 0.47694996 0.34582365 0.256847 0.14594778 0.12849055 0.47810453 0.27920687 0.2446827 0.5738965 0.28412637 0.5336367 0.24917284 0.4723183 0.5126819 0.22633906 0.320362 0.39094216 0.48195273 0.0564442 0.013963416 -0.09391338 0.16529639 0.1758957 0.13781682 -0.023630768 0.16898912 0.34833738 0.1415805 0.36018968 0.36063653 0.15201618 0.27052444 0.16829422 0.07416151 0.28494066 0.07820496 0.26872006 0.14629832 0.20411411 -0.076126814 -0.12314058 0.058054283 0.093133785 -0.07479616 0.15011662 0.16198902 0.13976854 0.5788776 0.71032107 0.7090725 0.6472682 0.77758265 0.6619915 0.3555485 0.58277166 0.5535191 0.51523054 0.15805899 0.54969597 0.21985884 0.18490192 0.746317 0.21387035 0.17984492 0.75939596 0.27202746 0.6105801 0.6675203 0.19743083 0.19333729 0.2603434 0.35693783 0.4940092 0.58569515 0.008959711 0.079093054 -0.013094947 0.15119554 0.18130572 0.004967898 -0.062273085 -0.06965543 0.1068307 0.083916664 0.14063372 0.142071 0.28316885 0.25634116 0.3517958 0.09085262 0.098711126 0.251751 0.33085078 -0.022970587 -0.2911072 -0.2751601 0.005575575 0.049119383 0.24772504 0.24450102 0.25081336 0.28357404 0.42649162 0.23016298 0.28306484 0.32285747 0.3663669 0.35149312 0.4851931 0.46220958 0.4737596 0.70654774 0.70520306 0.709903 0.6857798 0.68467134 0.6613836 0.6444743 0.63275766 0.5846336 0.8229649 0.8155053 0.79907006 0.81787753 0.8049612 0.77970326 0.791661 0.7998663 0.5932456 0.6467464 0.5999342 0.43213323 0.39228058 0.665197 0.69631875 0.25385553 0.8940198 0.3077606 0.8609711 0.4504481 0.7041403 0.8253376 0.4945921 0.6766653 0.70095503 0.16455066 0.29089686 0.25969806 0.16864765 -0.0780071 0.14770755 0.12873754 0.13403676 -0.09553961 -0.08275424 -0.032614067 0.27091947 0.2112181 0.0141482055 0.40189654 0.32131425 0.4906938 0.47065866 0.0781081 0.47841707 0.00433819 0.46032423 0.37798834 0.004170917 0.22662768 0.29554328 0.06743606 0.2325069 -0.043133438 -0.21345282 0.1716419 0.20782761 0.09225684 -0.037925057 0.092056364 0.22021775 -0.11895843 0.28071326 0.27933538 0.2738248 0.27148426 0.26848 0.3364961 0.3350572 0.36251268 0.36596987 0.693504 0.39520046 0.43973014 0.29854527 0.42653137 0.49575314 0.5066165 0.4631316 0.70387316 0.7462332 0.70883197 0.70158786 0.70530367 0.72558546 0.7148683 0.6415359 0.7009368 0.6576728 0.6415217 0.60732263 0.67836577 0.59682477 0.6077016 0.61443 0.5881027 0.5002932 0.43413413 0.39644778 0.4803533 0.5046928 0.48983938 0.5107443 0.8201064 0.82230544 0.8014196 0.83727014 0.82572615 0.81443095 0.7931944 0.7319835 0.84026563 0.8291336 0.76977307 0.718246 0.8206737 0.8301916 0.7669834 0.7359847 0.86165667 0.8980316 0.8673721 0.8033904 0.7969946 0.75615764 0.67692053 0.63000166 0.77010447 0.7434999 0.71130526 0.61652887 0.7561004 0.81531215 0.46087098 0.54174596 0.9228735 0.9601836 0.7030532 0.81406516 0.85333943 0.90215856 0.34158784 0.40495452 0.46746325 0.44305766 0.22298536 0.2837469 0.14452589 0.1655902 0.1621202 -0.055140562 0.24186468 0.1711956 0.12464425 0.45721525 0.2531032 0.58851814 0.21226516 0.60676324 0.5821059 0.09959872 0.08640506 0.64640856 0.5511304 0.54887664 0.4947773 0.3088061 0.4519335 0.094286546 0.3494514 0.23986979 0.26207066 0.16535246 0.29171258 -0.13455167 0.022077344 0.530529 0.28095597 0.0049426705 0.29824257 0.5306567 0.59932584 0.6442623 0.2652268 0.24798921 0.6411909 0.6799753 0.25632676 0.30163848 0.34469944 0.6880624 0.72959316 0.72944677 0.34255278 0.4607377 0.5032921 0.4369875 0.2858836 0.32868084 0.76705885 0.80424607 0.78469265 0.77492595 0.75791657 0.8200782 0.65084934 0.6953205 0.61446273 0.6142292 0.661702 0.73778963 0.7723266 0.6275948 0.719226 0.6975912 0.5731025 0.5930822 0.65758526 0.55297923 0.57018757 0.54532003 0.5383497 0.48845235 0.37776142 0.42638165 0.53610444 0.6383197 0.31970245 0.417274 0.582757 0.672653 0.3597644 0.45083085 0.48412886 0.5203003 0.5430627 0.6581867 0.46847928 0.49745297 0.80004406 0.81757534 0.7808647 0.71684605 0.7937691 0.8036931 0.65639216 0.6066006 0.7867675 0.8136519 0.64665973 0.58068067 0.7841381 0.79780555 0.572667 0.5073378 0.76540494 0.7628689 0.7657441 0.6612173 0.62980187 0.5005858 0.77183306 0.9282306 0.87595373 0.7091944 0.6465088 0.6056611 0.7300402 0.90312064 0.9294383 0.89788264 0.5428066 0.7977084 0.90629846 0.93262887 0.646767 0.7803695 0.8343288 0.8909073 0.93706393 0.8582613 0.9095247 0.93694246 0.37439325 0.41322243 0.4571525 0.48218173 0.32312226 0.31713122 0.16884084 0.24259618 0.3140339 0.17224821 0.14172064 0.55177474 0.21281382 0.22440866 0.67026377 0.6287133 0.20844491 0.7443515 0.1736936 0.75212765 0.42612964 0.5626874 0.70568 0.6796315 0.56392217 0.57782924 0.63895005 0.56696725 0.4021253 0.50562716 0.187341 0.3191222 0.25553593 0.47415206 0.5108371 0.5224154 0.29421058 0.21197993 0.5627174 0.57847714 0.27039453 0.62523085 0.24353737 0.2290486 0.68315417 0.24963811 0.2826606 0.35622844 0.26574296 0.18003508 0.2629194 0.7394037 0.3178355 0.7949052 0.76770496 0.62998724 0.7491819 0.81152004 0.8248049 0.5668804 0.58891296 0.643407 0.53446996 0.5112147 0.53017116 0.69683504 0.7159599 0.58371013 0.6896259 0.5418431 0.6341016 0.49871787 0.48720714 0.47517025 0.489765 0.46647263 0.54634327 0.5768482 0.41415995 0.36761647 0.51649874 0.6104797 0.6543546 0.6749313 0.18667829 0.6972127 0.70502913 0.25557956 0.5637801 0.66200864 0.7086788 0.29618078 0.37172055 0.48307258 0.45678902 0.47029608 0.80642694 0.8545109 0.8830608 0.8642895 0.82144076 0.8988471 0.912025 0.842412 0.799337 0.8968577 0.84477866 0.7686566 0.73846614 0.7801003 0.7286601 0.6511034 0.6692189 0.7427987 0.7472723 0.62447786 0.5850018 0.6160921 0.61277896 0.67060935 0.6623288 0.5702808 0.7477908 0.75118685 0.52468073 0.7556926 0.4249416 0.7425108 0.7042505 0.44274008 0.41312593 0.6795338 0.6178 0.52704227 0.46461937 0.8648685 0.8891683 0.8832582 0.34959587 0.35520393 0.39340124 0.3041464 0.29298162 0.3157982 0.2714295 -0.24250615 0.21968192 0.15126641 0.5362704 0.30643418 0.18840164 0.1804711 0.65763366 0.52835774 0.13474834 0.15020749 0.74436307 0.72259283 0.61603653 0.16446537 0.7750959 0.7687882 0.58215284 0.766042 0.75860786 0.70834446 0.48290518 0.5814978 0.7188674 0.35144025 0.5725274 0.5498761 0.53990275 0.48614222 0.08655447 0.4054219 0.21682239 0.11324789 0.52195966 0.54319394 0.57319653 0.19418931 0.6079694 0.6740992 -0.06487567 0.68461347 0.45128495 0.39848858 0.73728794 0.7179147 0.5640707 0.70149374 0.7745898 0.75251955 0.47926193 0.53583324 0.60274 0.50489455 0.48935845 0.48519236 0.53701466 0.6558821 0.5460362 0.5013585 0.49304104 0.40084457 0.43963468 0.34188998 0.4450577 0.5033327 0.57538867 0.6479916 0.6785773 0.73706084 0.68169934 0.7482194 0.7870643 0.20145766 0.2730829 0.20027104 0.48660925 0.5862583 0.74602735 0.78347766 0.8117963 0.8328203 0.41535664 0.27532992 0.176085 0.15497047 0.7120249 0.76886797 0.8086662 0.76175034 0.42073035 0.57552737 0.58477604 0.47417283 0.30326933 0.22128895 0.722433 0.725678 0.74504405 0.67937183 0.63979304 0.6014802 0.49744064 0.38984552 0.43826848 0.62465096 0.60166097 0.54967016 0.6550213 0.47353157 0.5690688 0.5376662 0.5142168 0.5550887 0.5111348 0.5150376 0.5217141 0.66285247 0.45026672 0.36723846 0.56063724 0.33398518 0.5775102 0.49404997 0.47059697 0.35720593 0.2827655 0.3987986 0.29788753 0.26356873 0.26784876 0.24633312 0.15037066 0.21619567 0.2628452 0.26472816 0.26329497 0.242706 0.23803416 0.23861948 0.1601886 0.16271827 -0.0022947565 0.5777812 -0.07868637 0.6828302 0.640464 0.5121542 0.73792535 0.67203057 0.41849142 -0.05644097 0.54939336 0.57633567 0.74842036 0.6997951 -0.08701538 0.5593953 0.56855786 0.49375105 0.5004226 0.33205152 0.44164276 0.15895623 0.22410981 0.505372 0.5250398 0.5596335 0.33929968 0.55114216 0.32627875 0.56257045 0.32502255 0.328327 0.40367454 0.4325777 0.58346146 0.67099065 -0.02512598 0.24540073 0.677895 0.6737727 0.6558203 0.61972976 0.40634355 0.18525127 0.314973 0.55378675 0.69385266 0.69423044 0.68305993 0.63993645 0.49272814 0.40282527 0.49585682 0.48283315 0.4683234 0.45143265 0.4939283 0.46980438 0.46732196 0.4423151 0.4281094 0.31355357 0.43613398 0.46304494 0.55376464 0.64530027 0.7017369 -0.029064521 0.7262947 -0.0969964 0.5391144 0.67116207 0.6958593 0.7158233 -0.024405079 0.15344954 0.3536098 0.5254331 0.68852925 0.7299272 0.7793062 0.1934335 -0.008988038 0.7266213 0.26976413 0.23970547 0.11213214 0.34540313 0.27084374 0.5200198 0.5142119 0.45306233 0.62168753 0.57809734 0.5056095 0.43242365 0.34846276 0.4022839 0.46328896 0.5042323 0.52025414 0.40153888 0.4153202 0.4095259 0.39062247 0.4715936 0.53172314 0.47779864 0.50497925 0.3888839 0.12214123 0.4134172 0.40015584 0.24764392 0.14644042 0.13108583 0.19268024 0.31184882 0.33644757 0.08563721 0.18541203 0.23011872 0.20143294 0.1992246 0.32320425 0.29786098 0.3169063 0.19730605 0.18379179 0.28296185 0.27241185 0.23415649 0.21317734 0.18431501 0.22853339 0.1692619 0.10951549 0.3032562 -0.30194288 -0.32886335 0.2587242 0.43337876 -0.08080525 -0.06888005 0.39973944 0.16554539 0.1323941 0.29869413 0.2115057 0.11776964 0.29365107 0.45275068 0.3606658 0.5167718 0.37787765 0.48264384 0.3903365 0.38846165 0.4892229 0.37549558 0.33115578 0.3206929 0.39316738 0.6044214 0.61864334 0.6212541 0.3405323 0.37393397 0.6854584 0.6536621 0.5691109 0.5128646 0.45683768 0.40869516 0.49761397 0.47021702 0.43059433 0.3691644 0.40624845 0.4306423 0.48955905 -0.08839224 0.32239577 0.10749822 0.26854014 0.10315869 0.16581422 0.40814078 0.589737 0.05182997 0.66447204 0.70182073 -0.10282179 0.691233 -0.18008457 0.4233272 0.5788828 0.4333756 0.44597653 0.6601559 0.68127716 0.5885731 -0.044310108 0.013601519 0.3653829 0.36826715 0.6243794 0.613488 0.646477 0.51974005 0.52300924 0.02517004 0.07051583 0.28483132 0.29909283 0.41759196 0.69617766 0.44151312 0.32611823 0.096127786 0.0072895978 0.14349163 0.18930161 0.14694202 0.21024618 0.12698962 0.09990026 0.025685377 0.13088062 0.15474522 0.08395994 0.005070843 0.24047434 0.111864455 0.18486473 0.43287888 0.4742911 0.3976617 0.15203997 0.11775859 0.3030669 0.22643417 0.24637672 0.3235275 0.44538575 0.53569704 0.16785832 0.21911152 0.16636601 0.1643632 0.2955044 0.4419331 0.42769355 0.5853628 0.124323115 0.19969553 0.27517128 0.18061155 0.37194705 0.44256613 0.4746021 0.3045524 0.33588013 0.32035637 0.2503782 0.22537623 0.26802036 0.36764282 0.3638076 0.30164158 0.30026782 0.3311201 0.36485893 0.39145198 0.08948738 0.1380528 0.16141048 0.20494464 0.22494482 0.28777587 0.3544075 0.21814376 0.25419047 0.28190798 0.30464995 0.38650703 0.3465584 0.3293275 0.3805077 0.32563952 0.3531425 0.30044192 0.31150073 0.23901919 0.20999023 0.1541355 0.29951388 0.12538987 0.38729328 -0.033139203 0.3721854 -0.17397039 -0.17933151 0.07592365 -0.05140959 0.066076584 0.17516956 -0.06284327 0.14540589 0.2934705 0.22808634 -0.07595579 0.34790865 0.34754378 0.39087296 0.3854406 0.40280676 0.40776956 0.41487235 0.46182254 0.40195647 0.39857715 0.3393605 0.38423145 0.351924 0.41478717 0.30694142 0.52627313 0.60513145 0.65983486 0.63920796 0.5434124 0.5066964 0.47065866 0.62354064 0.18323651 0.2732696 0.29649705 0.040111702 0.23203984 0.2656748 0.19622009 0.13342631 0.054070566 0.26773235 0.08854722 0.3757702 0.054683656 0.041951124 0.622844 0.49792403 0.47998792 0.46728748 0.7505791 0.81722295 0.8104675 0.55317295 0.49428266 0.48360017 0.45652717 0.40699834 0.7401711 0.7896496 0.79686946 -0.13151963 0.3358095 0.50002676 0.4149802 0.46112674 0.3536613 0.582415 0.6670751 -0.058703877 -0.09615603 -0.06530038 0.045609802 0.34417993 0.08497744 -0.05483955 0.306192 0.44046357 0.49244606 -0.012222063 -0.025667045 -0.047886275 0.31810105 0.3007024 0.11180124 0.38708207 0.16305906 0.34837908 0.36066824 0.008712728 0.10129163 0.03621145 0.102887124 0.26356727 0.2587111 0.40776452 0.4963871 0.37870193 0.2638471 0.16486737 0.1481368 0.08673248 0.25709197 0.22876865 0.15986517 0.119963326 0.4665609 0.5076614 0.51230425 0.45980886 -0.20839888 0.15112457 0.22453003 0.23939511 0.55737853 -0.12699032 -0.11723788 0.0968471 0.23237456 0.25700235 0.259314 0.117085986 0.25960204 0.26029274 0.6268662 0.18413232 -0.069215804 0.23446947 0.25672424 0.2652173 0.40850705 0.38342312 0.35168302 0.34959456 0.25303307 0.24413599 0.2631205 0.27553302 0.3024066 0.22087353 0.15587586 0.37202427 0.32187063 0.07658096 0.35544866 0.38088527 0.21995638 0.26546025 0.27209425 0.33810362 0.35346413 0.34063622 0.33426338 0.34910008 0.33226645 0.31318724 0.38076133 0.380557 0.29817447 0.32896632 0.3287387 0.26728573 0.42216682 0.1998604 0.56241333 0.6305933 0.4538444 0.4691965 0.5801333 0.596812 0.44887328 0.2106892 0.35011995