# vtk DataFile Version 2.0
Really cool data
ASCII
DATASET POLYDATA
POINTS 4742 float
0.3931272 32.831085 12.966024
0.38988674 32.88638 13.461835
0.3985361 33.360905 12.847719
0.354404 33.427914 13.391895
0.4585343 46.762383 14.293191
0.4701011 47.062225 14.454581
1.0531535 32.170715 12.677268
0.90943795 32.185966 13.48029
0.9202665 32.28693 13.871408
0.96533465 32.6786 12.186746
0.6461704 32.61893 12.653652
0.5699898 32.52451 13.379081
0.85456717 32.717957 14.202685
1.2801042 33.123596 14.980808
0.9356253 33.54706 12.0601425
0.54853773 33.431503 12.545404
0.64194214 33.532406 14.21147
1.201451 33.686153 15.1641655
1.1633937 34.27212 12.088742
0.80175817 34.1791 12.556245
0.66620094 34.273693 13.46011
0.9111134 34.32003 14.276689
1.2893686 34.49876 15.332018
1.0695091 34.703125 12.95647
1.2323296 34.91232 13.62287
1.2597044 34.922104 14.635343
1.3553953 34.882828 15.412478
1.3153083 40.21488 14.948599
1.300859 40.831223 14.763616
1.2567242 40.68648 15.476502
1.3769828 40.613617 15.891494
1.3940358 41.234436 14.295216
1.297013 41.092224 15.60282
1.302004 40.97167 15.828564
1.4156582 44.01557 12.82962
1.4504993 44.619728 11.557564
1.2358409 44.59375 12.454095
1.3031554 44.27102 13.442936
1.2766347 45.21335 12.023797
1.2138445 45.394665 12.3298855
0.9666333 45.53104 13.606007
0.79416645 45.949207 14.565651
1.0548927 45.8204 14.936981
1.1680379 46.82762 11.844426
0.7173035 46.425854 12.899303
0.59232104 46.44723 13.567436
0.573071 46.44213 14.665443
0.79852307 46.594193 15.221408
1.1779069 46.771805 15.746001
1.1587074 47.341198 11.975446
0.9734737 47.282776 12.527608
0.6747513 47.42066 13.487864
0.5860125 47.638165 14.282582
0.80001044 47.385452 15.220604
1.086757 48.375652 13.744009
0.89911985 48.25864 14.475569
1.0849266 48.05523 15.243691
1.3034916 48.751595 13.91517
1.2256942 48.713776 14.279743
2.1834176 31.891691 11.664069
1.5338799 31.897184 12.514441
1.8073081 31.687153 13.339543
1.5114753 32.123444 14.075337
2.1482444 32.880283 11.168621
1.6006694 32.582466 11.77135
1.235509 32.357502 14.201543
1.6336187 32.865215 14.930667
2.1670518 33.091896 15.919956
2.0874312 33.549408 11.054496
1.5767432 33.707657 15.62383
2.0114102 33.694916 16.209661
1.7109418 34.436184 11.633846
1.5615811 34.820286 15.718558
1.648614 34.47644 15.943738
1.8655543 34.957386 11.833239
1.8894159 35.56402 13.081602
1.6031601 35.24915 14.105851
1.6783448 35.2322 15.494868
2.0112236 35.179516 16.12466
2.1503942 35.61483 12.920787
2.1858258 35.635643 14.157214
1.6071119 40.00676 14.768019
1.5981464 39.969406 15.515594
1.8417757 40.136337 16.087055
2.232543 40.60988 11.928121
2.0733612 40.938812 12.143141
1.6902518 40.49769 13.976661
1.4851205 40.540356 14.304381
1.6579248 40.608227 16.178787
2.2227693 41.867138 10.958446
2.2199326 41.623913 11.33654
1.994483 41.23481 12.388633
1.4638804 41.272602 14.352746
1.594358 41.13387 16.069668
2.0602412 42.61937 10.918411
1.7888892 42.92994 11.468155
2.029062 42.600792 12.328951
2.0365918 42.24521 14.639609
1.8225429 42.078037 15.054708
1.7866826 41.81096 15.985568
2.2572014 43.645145 10.162341
1.88749 43.106716 10.993048
1.6940694 43.590855 11.467585
1.4933962 43.90521 13.364398
2.3165052 44.734398 10.1172285
1.5135959 44.846054 11.465577
1.5449567 44.55106 14.242085
2.007082 45.232635 10.570884
2.2848496 45.75635 16.357494
2.046112 46.26508 10.796411
2.2028623 46.673283 16.676254
1.9053692 47.183304 11.273284
1.7088543 47.392117 11.508457
1.7715001 47.725 16.142809
1.869241 47.945644 11.864849
1.6273345 48.19103 12.450469
1.4724407 48.54019 15.393252
1.8516432 48.012856 16.036577
1.6360775 48.882755 13.760938
1.6478275 48.96325 14.324023
1.8416378 48.794773 15.210074
3.2148547 31.227964 11.427572
2.987503 31.082726 12.63023
2.8118794 31.247404 13.113825
3.3267512 31.939812 10.079116
2.9360569 31.474327 11.359098
3.3769054 31.608467 16.561247
2.7566361 32.690628 10.567272
3.156328 32.66883 17.316317
3.3358922 32.670326 17.8145
2.3924823 33.706123 10.93657
2.4471424 33.363556 16.545456
2.9910223 33.392967 17.345928
3.1141264 34.729332 10.196636
2.7711403 34.395172 16.816788
3.3200545 35.563213 10.195263
3.0713003 35.51734 10.548866
2.2790108 35.349354 11.863702
2.6405318 35.388004 16.310987
3.3052578 36.31633 10.757555
2.7725601 35.80649 15.640701
3.4096115 36.973835 10.271423
2.5189676 39.275898 14.906464
3.083642 39.19417 16.035116
2.7435749 40.246445 11.332908
2.7645917 39.81339 12.629584
3.1337504 39.613525 16.411076
3.237391 40.74188 10.322813
2.5026348 41.042942 11.008042
2.383752 40.24273 16.535591
2.975495 40.47066 16.654114
3.1678672 41.37668 10.103512
2.6268773 41.65545 16.46381
2.6423624 41.51688 16.82254
2.6396348 42.763184 9.858004
3.3098366 42.166405 17.04758
3.1082864 43.485943 8.906382
2.639861 43.80096 14.751193
2.840172 43.61745 15.203765
2.9405572 43.435043 18.25348
3.2360425 43.524944 19.00049
3.0540042 44.156876 9.023035
2.7997496 44.526787 16.93454
2.9687922 44.56402 17.506628
2.8984182 44.19893 18.134882
2.9918795 44.375988 18.912666
2.6195793 45.23298 9.857447
3.1364174 45.248074 17.83758
3.0530882 45.283035 18.486534
3.3011484 45.21222 19.286469
2.5927167 47.389484 11.165499
2.751349 47.50147 16.924633
2.3162978 48.121834 11.876723
2.9265234 48.448082 12.245942
2.4288993 48.15668 16.440502
2.8244529 48.065403 16.653658
2.4517083 48.772556 13.126704
2.380949 48.952377 13.583513
2.3448315 49.064564 14.39683
2.6136098 48.89126 15.149776
3.2647898 50.077507 22.49922
3.3887556 50.027683 22.964626
3.3642757 50.68646 22.099426
3.2873886 50.540268 22.668087
3.326295 50.642746 23.189243
3.3955905 51.222004 22.65135
3.3871477 51.07792 23.137276
4.215698 30.295942 16.103811
4.2459984 30.292593 16.655655
4.0920644 31.180857 9.937868
3.8439903 31.046658 10.572821
3.7065375 30.88627 11.449881
3.214774 30.97205 12.775259
3.4384456 31.118263 13.14464
4.1638784 31.283789 14.930062
3.9846647 30.601902 15.874455
3.8649483 30.732426 16.605228
4.0595207 30.885548 17.165728
4.2010117 31.911596 9.176757
3.8664238 31.84296 9.548505
3.593064 31.39895 16.714762
3.6956446 31.45936 17.2735
3.9855132 31.924154 17.966839
4.0440664 32.58273 9.096531
3.6798825 32.756077 9.561993
3.7798276 32.702724 18.11665
3.7756069 33.535828 9.589952
3.7538722 33.421997 18.180641
3.6283906 34.23023 9.847433
3.587933 34.33827 17.692163
4.111328 35.685093 8.94858
3.565017 35.9775 9.607644
3.9798658 35.53267 17.194551
4.098185 35.032078 17.741627
4.085506 36.86612 8.765174
3.415729 35.79721 12.430255
4.068482 36.02083 14.952432
3.7989802 36.150944 15.986825
4.0655837 37.18095 9.0181
3.7886431 37.75759 9.629257
3.7694118 37.157288 11.030027
4.3112288 38.28092 8.95336
4.0071526 38.38181 9.806342
3.7254574 38.75824 14.988417
3.7040823 39.1079 16.264761
4.401054 39.954243 8.310904
4.0711904 39.273285 10.577638
3.330483 39.85735 11.304857
4.4337797 40.691925 5.899116
4.3804355 40.380173 6.2712
4.3081274 40.698074 7.3606577
3.8251553 40.88914 9.903204
4.448007 41.153103 5.5236197
4.312638 41.228947 7.286195
3.7498088 41.818886 9.034982
4.1668673 42.600956 7.7706904
3.4142718 42.52598 9.156951
3.4333851 42.675026 18.633232
3.5836918 42.78814 19.018229
4.244185 43.018482 23.956343
4.3112826 42.630398 24.54873
4.2616496 42.890594 25.140928
3.685347 43.717606 8.230337
3.4563744 43.99238 19.617147
4.0747957 43.174133 20.217886
4.369146 43.163746 23.759262
4.1641097 43.394855 24.69047
4.288141 43.412334 25.25001
3.9342144 44.38727 8.250951
3.4435887 44.402653 19.678701
4.2953153 43.99631 24.419771
3.705753 44.959797 8.900698
4.1790648 45.41165 20.3186
3.4541094 46.150837 10.022264
3.51021 46.461437 17.959532
3.722735 46.13426 19.166718
4.221568 45.992363 19.768724
3.4674392 47.245266 11.079578
3.7490144 47.533115 11.49281
4.251758 47.793335 22.464653
3.4373536 48.031895 11.89326
3.2217937 48.4807 12.467886
4.1646266 48.485825 21.78526
3.9260218 48.647114 22.872616
4.120395 48.75505 23.625153
4.3564663 48.63868 24.193079
3.3698313 48.554443 12.730948
3.3938828 48.657616 13.418403
3.5411248 48.801514 14.187692
3.5523474 48.6953 15.57206
3.680059 49.82159 21.873005
3.664569 49.738506 23.27323
4.2593427 49.443127 24.359106
4.0845804 50.738564 21.282087
3.6638565 50.530052 21.764698
3.5352957 50.493984 23.564936
4.0192976 50.439743 24.273487
3.8659284 51.44863 21.852427
3.6052592 51.573895 22.629637
3.639311 51.395996 23.386673
4.0589943 51.492687 23.916199
4.160389 51.9533 21.996351
4.001705 52.027473 22.548874
4.0031867 51.987545 23.35021
4.259065 51.929855 23.782532
4.6601686 30.453135 11.064501
4.6908255 30.166634 15.849703
4.60684 30.121628 16.592554
4.7790976 30.209162 17.020409
4.489137 31.328901 9.325143
4.476113 31.13069 9.7007
4.678134 30.614809 10.539845
4.5321856 30.645298 11.442409
4.559622 30.631458 12.035995
4.434724 30.593239 15.385022
4.513755 30.675945 17.433743
4.7095213 30.931948 17.722353
4.5482197 31.774227 9.057342
4.315108 31.549568 9.357311
4.7381797 31.584602 18.09584
4.4481416 32.458447 8.926695
4.556822 32.544056 18.491972
4.9087343 32.606876 18.598925
4.751041 33.453533 18.687263
4.730086 34.586853 18.275597
4.7048326 35.457127 8.64146
5.1712947 36.73593 8.222115
4.686696 36.433376 12.172461
4.1223793 35.793797 13.738663
4.9570937 37.630646 7.861625
4.7322826 37.11797 11.793222
4.489408 38.344616 13.473154
4.8938656 37.943123 21.865591
4.9831705 38.034023 22.547726
5.1703906 38.166187 22.88746
5.088714 38.48838 5.252525
5.0265913 38.8195 6.429691
5.146409 38.211952 7.9335337
4.590698 38.583866 13.570829
4.278649 38.694996 15.284066
4.697491 38.965145 21.068586
4.6461506 38.463425 21.585102
4.68526 38.64063 22.369473
5.061288 38.58492 22.911129
4.7830877 39.93961 4.7860556
4.7657967 39.348633 5.419507
4.6150584 39.91621 6.527829
4.545238 39.475975 8.024861
4.845323 40.140564 18.383865
4.6262116 39.853058 19.888878
4.5748425 39.620644 20.599854
4.5465136 39.39907 21.59364
4.6355753 39.254715 22.417225
5.0272536 39.083736 23.004536
5.1253786 40.499348 4.1852913
4.7232175 40.60972 4.715389
4.5128994 40.93446 5.1662493
4.7226796 40.410152 18.493464
4.599121 40.643364 19.50449
4.611323 40.57158 20.756533
[...]
POINT_DATA 4742
SCALARS features_00 float 1
LOOKUP_TABLE default
0.74856806 0.7398727 0.7577243 0.76403475 0.57029593 0.6120068 0.68028694 0.69036335 0.6818677 0.680588 0.72529876 0.72486436 0.6689076 0.5396632 0.65911806 0.7327541 0.6858561 0.52168393 0.5994979 0.6775031 0.71011233 0.63818264 0.5290161 0.6188637 0.5909525 0.56780773 0.5279919 0.59715396 0.573328 0.6052722 0.60668373 0.49844015 0.5886677 0.5942905 0.25105998 0.27983212 0.28933448 0.2647459 0.3437286 0.36884958 0.38665777 0.4517762 0.41191113 0.56351167 0.5191577 0.51083815 0.53377295 0.5557907 0.57188857 0.62008846 0.6463273 0.6536666 0.67852384 0.65778166 0.71635175 0.72154486 0.70515907 0.71958405 0.72819996 0.49675152 0.6099647 0.5677279 0.59413207 0.4592537 0.58428144 0.63574475 0.5020033 0.35797936 0.40505853 0.4525512 0.4059174 0.47045422 0.5036622 0.4701882 0.44519103 0.50499445 0.5427149 0.5061586 0.48855656 0.47342247 0.47620177 0.5833231 0.6195387 0.60749537 0.21523434 0.20744243 0.429169 0.5124848 0.5914506 0.2029776 0.20020498 0.19275248 0.50456965 0.5733955 0.2050944 0.19478759 0.15247338 0.39564466 0.48859245 0.509875 0.27348435 0.20979881 0.22293153 0.2067798 0.32649744 0.29980943 0.21953693 0.3544763 0.20749223 0.4908327 0.409958 0.5675862 0.58889174 0.6082988 0.60572493 0.65734625 0.71444947 0.6422243 0.6993043 0.7137258 0.71945274 0.4090816 0.35028186 0.32791242 0.42762136 0.43066424 0.51737297 0.38037282 0.41236138 0.46472508 0.33110112 0.36531892 0.38560617 0.17137495 0.41880625 0.20548564 0.1685752 0.37194425 0.48586154 0.22669618 0.48972315 0.29083923 0.5876713 0.58478504 0.18865949 0.28154036 0.5867133 0.14143819 0.19837722 0.5741577 0.51884484 0.17924663 0.44166732 0.433923 0.25386295 0.13997535 0.3400081 -0.019347504 -0.036652736 0.19584285 0.23006882 0.36762553 0.11157842 0.22886351 0.26359552 0.29148164 0.3819849 0.26225072 0.30137256 0.32087767 0.5338019 0.46265393 0.57066816 0.5191759 0.62388754 0.59580636 0.59625465 0.62396395 0.6664481 0.6882503 0.71900654 0.7020228 0.7818259 0.7691553 0.76846546 0.8332659 0.8150456 0.6313398 0.6602295 0.43591553 0.43681002 0.39005685 0.29756656 0.19971937 0.36302322 0.59551454 0.6482732 0.6450571 0.39425963 0.41218945 0.58243924 0.5899012 0.55535024 0.351914 0.34411 0.50585955 0.26423293 0.4769168 0.19580384 0.4076078 0.21763708 0.24570885 0.36568674 0.3451901 0.21120784 0.17866097 0.36628935 0.45989764 0.2078591 0.17786662 0.3120262 0.07803277 0.028906621 0.36974114 0.5114908 -0.042804208 -0.1294947 0.13395119 0.34168252 0.2970655 0.14538898 0.06968888 0.3827842 0.15628551 0.09322743 0.17092355 0.23057786 0.09534061 0.121790774 0.4754322 0.58501256 0.658298 0.34388667 0.25750738 0.08333555 0.42948365 0.6020353 0.6726673 0.37282866 0.28744924 0.56668675 0.40072128 0.28817964 0.426121 0.2117676 0.2962342 0.2862943 0.4566834 0.43803996 0.5026805 0.47727194 0.49050477 0.6165065 0.56491375 0.51457006 0.5008944 0.47169608 0.46868432 0.4773213 0.5604537 0.6882447 0.65744257 0.62031484 0.78779006 0.76342785 0.7452173 0.75296867 0.8686554 0.87157995 0.84984446 0.8539503 0.8980156 0.9106892 0.90567946 0.88553965 0.3952606 0.60423124 0.6575793 0.65539175 0.41458362 0.42898905 0.42617685 0.3715893 0.30674344 0.5194999 0.63972914 0.6043906 0.39139357 0.41367996 0.541111 0.34256846 0.48615304 0.45656312 0.44176328 0.3527199 0.15558761 0.089310735 0.027750313 0.2147756 0.040834814 0.116999954 -0.041555934 0.4504614 0.4484386 0.45464006 0.35609484 0.18866754 0.011036372 -0.01877808 0.2708379 0.3461968 0.44110665 0.46044797 0.46134222 0.42719278 0.3742641 0.25263444 0.017177295 0.06810109 0.14147367 0.21504995 0.34123778 0.42617205 0.44123816 0.47406614 0.43788117 0.4073742 0.06597429 0.08783122 0.12682818 0.20405582 0.49275964 0.44781637 0.41336706 0.24614736 -0.0021740813 -0.008244031 0.024027307 0.60233927 0.6748284 0.6874203 0.4812767 0.41190422 0.34819466 0.4299346 0.69536734 0.6951436 0.25387534 0.04487223 0.70179176 0.68091285 0.36014014 0.056365468 0.6895747 0.6459106 0.34451425 0.19938153 0.44871253 0.27813873 0.3584901 -0.04960218 0.40086773 0.4190554 0.39214164 0.40541327 0.3942993 0.4182073 0.42012355 0.48836136 0.394638 0.55004627 0.5353788 0.45257628 0.57995814 0.5921494 0.6554172 0.7327356 0.7010555 0.757193 0.86237615 0.74302214 0.88954955 0.9153704 0.9092371 0.8597068 0.91168725 0.38173062 0.6045311 0.6447728 0.6412462 0.3924812 0.38119894 0.22042204 0.28157908 0.5905221 0.54198307 0.3688314 0.4599943 0.28240916 0.37451604 0.39169043 0.37299064 0.018851174 0.33042157 -0.053028725 0.17324637 0.21199462 -0.05610651 -0.09505328 0.35878232 0.32557392 0.30980223 0.25957942 0.04059593 -0.26948252 -0.15788145 0.37254193 0.4107554 0.4201231 0.41973084 0.14257863 0.42107788 0.44340062 0.50765085 0.5382086 0.66408396 0.6591978 0.516282 0.5226862 0.6277198 0.5942185 0.30599016 0.62609404 0.596846 0.5528877 0.22260752 0.4631912 0.5075391 0.15232317 0.329449 -0.08600436 -0.2105952 0.41159564 0.326095 0.31213436 0.07466926 0.58550686 0.4713838 0.65682113 0.666245 0.68055 0.7338923 0.6872456 0.7667184 0.81912434 0.88343644 0.8804397 0.81012917 0.13217981 0.57997906 0.5724943 0.5100256 0.4445461 0.47856846 0.41728455 0.39481294 0.46595678 0.3822344 0.19321969 0.28690332 0.16296822 -0.04884348 0.16342542 0.13912304 0.15107657 -0.1687651 0.16473797 0.25937197 0.2580407 0.34546417 0.65779775 0.60984206 0.46732974 0.5920877 0.45476946 0.4831601 0.49749 0.5590447 0.48390058 0.46361822 0.36080784 0.42606524 0.54045856 0.07356508 0.45444995 -0.03869067 -0.23162588 -0.21895841 -0.071459234 0.074981734 0.09427729 0.0865838 0.21443099 0.43305814 0.6299019 0.5817254 0.6393038 0.7494924 0.7779561 0.8169068 0.7138255 0.6542719 0.677155 0.64058346 0.60597646 0.52813816 0.57691336 0.54475206 0.5041939 0.4294705 0.3503258 0.45296025 0.36452433 0.19618069 0.48924732 0.4961936 0.058297135 0.4853906 0.40658382 0.38419488 -0.06487323 0.62484777 0.6346293 0.1900102 -0.1550418 0.4468137 0.5469993 0.60321486 0.60239345 0.07488313 -0.114231855 0.06736656 0.17873012 0.44911194 0.53016627 0.53393495 0.6560339 0.56968576 0.46973896 0.19150665 0.32493636 0.41873103 0.40351087 0.78497326 0.70471585 0.5334738 0.31734014 0.33373585 0.8159971 0.74265575 0.23005414 0.2703023 0.8360286 0.7636245 0.7685214 0.69459164 0.5402999 0.603702 0.44557488 0.40740046 0.4045249 0.40142024 0.45218757 0.40236223 0.31207597 0.34083813 0.1368056 0.33520252 0.32102734 -0.21147352 0.13206887 0.2880269 0.53044087 0.538715 0.18449609 0.3535272 0.2050286 0.37753242 0.39658207 0.17515902 0.09369062 0.05666989 0.46162176 0.41188318 0.3023487 0.32409894 0.21918994 0.4098444 0.378937 0.45819446 0.45400172 0.63066053 0.5457491 0.74040985 0.73309016 0.7530279 0.74179417 0.6916367 0.68290746 0.69049215 0.6945278 0.6782392 0.61050284 0.5997526 0.6406356 0.44012928 0.3291273 0.51019484 0.5278158 0.27496207 0.420109 0.18241915 0.45196044 0.043965112 0.4454137 0.31862304 0.6683861 0.67121106 0.66572535 0.19812068 0.25229347 0.5906398 0.62791586 0.619015 0.60547423 0.55011684 0.34361634 0.5367091 0.53451395 0.69128555 0.63309205 0.42014837 0.8069935 0.7544806 0.3063667 0.8699961 0.25348923 0.23296893 0.874411 0.19950297 0.23924288 0.77692926 0.7381139 0.15835369 0.16069262 0.7497068 0.70845217 0.6343726 0.67215025 0.6206553 0.3287853 -0.08476189 0.006566108 0.41878423 0.30263084 0.49516755 0.55004174 0.41026428 0.3790775 0.5647564 0.5819181 0.42547715 0.15927154 0.40950793 0.4277802 0.24083912 0.43896455 0.4478633 0.3058908 0.46939307 0.4037516 0.4483987 0.09510637 0.03734532 0.49610758 0.4930267 0.48857844 0.48083597 0.15944886 0.107935116 0.7781342 0.8123642 0.8198153 0.77711856 0.71223956 0.71852976 0.73853445 0.65308005 0.5656249 0.6441045 0.38722658 0.25558951 0.36490315 0.39974964 0.4113111 0.5094213 0.37949097 0.27526316 0.2880179 0.2739563 0.23892158 0.18113528 0.37084988 0.37071308 0.10795585 0.3991725 0.6457893 0.6537232 0.3460273 0.3510287 -0.06974911 -0.09044191 0.60273707 0.6474974 0.6734134 0.67777246 0.25835034 -0.029390045 0.6489861 0.64479125 0.62264884 0.5043077 0.5701048 0.71861655 0.67098814 0.38881648 0.82596993 0.76302123 0.232501 0.87485707 0.2197004 0.8601832 0.7855557 0.11277124 0.7512079 0.72560304 0.68835676 0.69938344 0.66674507 0.56324375 0.44706658 0.25774866 0.524244 0.066632204 0.5454467 0.31869486 0.5449629 0.58771807 0.48617786 0.36648804 0.08377966 0.43076953 0.63170135 0.6000096 0.5184559 0.459099 0.2988697 0.4682178 0.46350437 0.35933727 0.4914949 0.49393982 0.40840358 -0.05008042 0.033432174 0.017501581 -0.021123886 0.18532856 0.52101254 0.50978005 0.44996887 0.46439528 0.45234054 0.38745412 0.2165201 0.07874258 0.8057645 0.83190966 0.8091179 0.75234807 0.7509824 0.7796426 0.7015611 0.6976774 0.69912684 0.41356853 0.437208 0.67325395 0.4029794 0.42856538 0.42887723 0.507514 0.5548462 0.35861653 0.2930455 0.2192885 0.27758875 0.14333297 0.05454714 0.33618897 0.28343827 -0.00037186593 -0.054770105 0.59806025 0.6311475 0.33697072 -0.042262614 0.522324 0.6124691 0.62983525 0.61358786 0.5716907 0.6245944 0.5281739 0.6788332 0.63603175 0.6935426 0.5942186 0.7814248 0.68215 0.45450935 0.4963382 0.774555 0.68349767 0.44812602 0.47966814 0.7544128 0.7103338 0.65667427 0.13011515 -0.13627195 0.4306485 0.4404006 0.70832646 0.6660904 0.55202854 0.40119463 0.26640248 0.30046892 0.36057228 0.6283492 0.59966654 0.53926045 0.5589637 0.5543232 0.4270218 0.30714956 0.271393 0.56432223 0.57273847 0.5909914 0.60543287 0.5124789 0.44746554 0.6218002 0.06996704 0.47963446 0.5249897 0.35378268 -0.045290582 0.5635852 0.40251684 0.27764308 0.2630973 0.01841307 -0.01201712 -0.065237425 0.06961611 0.12765935 0.36624026 0.38014406 0.7833503 0.7016722 0.731079 0.7551533 0.73404205 0.667694 0.62789714 0.70114857 0.6989964 0.6484902 0.4892651 0.54762226 0.37766027 0.43446016 0.45086372 0.40021837 0.58654773 0.6265372 0.27124804 0.25345552 0.3131255 0.2904088 0.4941128 0.082100585 0.22619516 0.17729469 0.22150452 0.3458658 -0.0028146058 0.04823931 0.29732758 0.21576077 0.013091594 0.2719583 -0.019321136 0.3565693 0.4804806 0.5299717 0.55268884 0.24743712 0.25261772 0.53945464 0.15617415 0.47098392 0.5699277 0.5474483 0.30902594 0.4121923 0.5215814 0.42414218 0.5338133 0.5031841 0.5971615 0.5550837 0.39782056 0.36761963 0.50243115 0.49531597 0.6251347 0.5441341 0.47028804 0.40724123 -0.13074234 0.47618046 0.47293192 0.6627589 0.59037113 0.5219048 0.43775097 0.18284419 0.41387463 0.58397484 0.45650417 0.36675975 0.024922047 0.3416554 0.057642676 0.29376322 0.2838559 0.4828012 0.1448409 0.54608744 0.45334494 -0.47738367 0.55249774 0.34704772 0.33575782 0.35068387 -0.015806774 0.38744783 0.5910319 0.3106031 0.49920374 0.5929915 0.29900175 0.06098763 -0.017542953 0.026385449 0.032692395 0.66563183 0.6172389 0.55492747 0.35718906 0.43825996 0.47831494 0.4179712 0.57497686 0.394315 0.28374362 0.29415333 0.22914329 0.53857553 0.49024168 0.44199264 0.29719183 0.16535047 0.17333922 0.15436545 0.40800795 0.32077023 0.09002283 0.012464106 0.076829106 0.024756644 0.086617686 0.1652568 0.076652855 -0.038957328 0.09217669 0.12794936 0.19706325 0.22803313 0.3625583 0.44677722 0.2671518 0.3831944 0.466259 0.26196885 0.48931557 0.47558552 0.24997601 0.28680113 0.1795674 0.057189807 -0.013894245 0.439396 0.47420856 0.2859099 0.26531187 0.16837345 0.49485815 0.47656855 0.2679228 0.07508358 -0.02029197 -0.08378438 0.10376573 0.3782928 0.07858716 0.26624444 0.024656653 -0.09417726 0.24720635 0.25165594 -0.15719518 -0.3093394 0.26573426 -0.4240572 -0.40376455 0.10626154 0.2046211 0.4881258 0.48717743 0.35926378 0.30609387 0.21937159 0.01736553 0.024560966 0.03553268 0.05418227 0.062418528 0.10402301 0.3183931 0.279286 0.31737098 0.37293956 0.45058197 0.2365943 0.119095996 0.024117842 0.19661659 0.19770287 0.1878308 0.16511413 0.33147818 0.35216948 0.040994495 0.11280615 0.3160244 0.3293954 0.08029549 0.14110814 0.3229723 0.28894547 0.3311627 0.35943255 0.268674 0.27514824 0.21269321 -0.028212573 -0.061153904 0.090987824 0.47219884 0.14736694 -0.56488335 -0.41503298 -0.034099966 0.20871693 0.15215907 0.2590813 0.14374207 0.24266897 0.12076135 -0.06530032 0.28669754 -0.10937108 -0.11424202 0.22278711 0.34962678 0.29938224 0.2949455 -0.17343533 -0.3712601 -0.36472946 -0.3293932 0.030312326 0.05018115 0.40300274 0.49187928 -0.041777313 0.56493104 0.46059397 0.4000218 0.27691832 -0.06809932 -0.059947036 0.031568483 0.0032963231 0.017450362 0.3857354 0.34264898 0.27853397 0.30693492 0.35918292 0.25739402 0.2782763 0.23196666 0.2655886 0.20946456 0.20334548 0.21719944 0.068490416 0.18732235 0.3117164 0.18827379 0.12509546 0.4058321 0.38889185 0.30466676 0.24600261 0.37958825 0.4043873 0.15032904 0.3512794 0.29575855 0.29036498 0.03422329 0.36721402 0.4211352 0.53140914 0.5731211 -0.124079205 0.1852099 0.5075174 0.54247427 0.17256373 0.39692914 0.19592755 0.27653837 0.30827767 0.089996025 0.041082494 0.31322894 0.31442982 0.031353734 0.33863354 0.36077228 -0.056414522 -0.056718674 -0.098853335 -0.61178386 0.38134462 0.22553074 0.31015563 0.35702267 -0.18003769 -0.102324344 -0.14498855 0.31207278 -0.02169896 0.4297444 0.45108506 0.05271916 0.52647436 -0.091626704 0.33434486 0.5548109 0.47086543 0.41127378 0.23408468 0.16112116 -0.08347075 -0.1306478 -0.06768032 -0.066342324 0.43242258 0.39874113 0.33173013 0.27423906 0.24341169 0.3588369 0.47032544 0.5744301 0.5353402 0.59924626 0.49252847 0.55706376 0.31197286 0.34862188 0.42570096 0.3282385 0.29121482 0.1229705 0.10912534 0.13761929 0.18176399 0.082312815 0.22327848 0.23128447 0.09550664 0.21773037 0.58192295 0.615597 0.63582385 0.39209592 0.28987724 0.22783545 0.117620975 0.10334507 0.07774529 0.34230858 0.52783924 0.61300135 0.40782854 0.4113406 0.35045624 0.21851164 0.25948137 0.26713017 0.38888186 0.38044882 0.44912794 0.5613159 0.5911099 0.32256317 0.3524682 -0.3101449 0.5966896 0.59628725 0.27961773 0.27731833 0.55787855 0.14746577 0.15198307 -0.55307704 0.41203415 0.44808388 0.31867984 0.33307242 0.08584265 0.30895668 0.3811736 0.33975148 0.012695714 -0.26893312 0.38737804 0.39998382 -0.5025984 0.11138355 0.23357536 0.32340693 -0.36883226 0.31448516 0.28678834 0.03649503 0.20732787 0.48068652 0.36825848 0.36873072 0.48780078 0.28425717 0.13807227 0.07476124 -0.016618181 0.05472111 0.52670455 0.07724011 0.585569 0.61907625 0.19045316 0.3735231 0.66699874 0.63511527 0.64126986 0.7160433 0.72738063 0.7634556 0.78117883 0.8401908 0.8541823 0.85062623 0.4842701 0.5812912 0.6362495 0.54070246 0.44600534 0.38024285 0.46874258 0.25330177 0.324416 0.20281276 0.10651274 0.01365193 0.25450766 0.015185159 0.07254351 0.62271357 0.65107083 0.111258835 0.11483483 0.1938912 0.6236678 0.6519392 0.663687 0.026637278 0.58071876 0.65074635 0.65284836 0.6570648 0.09477827 0.09465569 -0.008319909 0.1280559 0.31018066 0.6229752 0.10180033 0.10452785 0.072958246 -0.08034884 -0.108083986 0.1587034 0.18589425 0.5179776 0.2628888 0.0153482985 0.053000264 0.072208256 -0.41558623 0.063782886 0.5593808 0.58801425 0.2190837 -0.033181213 -0.44436687 -0.5265887 -0.2543514 0.60188043 0.601767 0.01664903 -0.42705452 0.5630653 0.4324426 0.44938463 0.50893795 0.33898586 0.48323074 0.3598179 0.30053017 0.3129943 0.22212702 0.3113088 0.28623328 0.33640522 -0.050266415 -0.23717536 0.27606696 -0.6754285 -0.38753995 0.110824585 0.046305288 0.24435389 0.050545305 0.14361669 0.43472046 0.30582967 0.25812483 0.05451844 0.008008983 0.04251624 0.12252018 0.47685838 0.5296721 0.12058701 0.09548171 0.5713959 0.72268295 0.6853421 0.77084917 0.8254671 0.8014484 0.82966137 0.88039243 0.9099658 0.91275024 0.9027361 0.9312264 0.53682214 0.61583215 0.6444696 0.55333203 0.4072793 0.22829601 0.38460407 0.115751326 0.012797236 0.17683426 0.025252923 0.020384518 0.2936079 0.42714867 0.5844004 0.6588379 0.6603117 -0.03289146 0.18664156 0.4301015 0.6640854 0.65716946 0.6557966 0.6163883 0.021533541 -0.27198744 -0.08197914 -0.10292128 0.4965451 0.5593809 0.03818638 -0.3245425 -0.5508465 0.5501679 0.57638323 0.3407855 0.14141305 0.5238489 0.5446973 0.44250703 0.58799094 0.3684589 0.5531041 0.33901072 0.38487154 0.2535156 0.17438222 -0.090833694 0.19449216 0.15021254 -0.10443171 -0.001435712 -0.06443431 -0.30164462 -0.044425637 0.16366859 -0.014775466 0.10217105 0.45028532 0.21724525 0.36831173 0.46654797 0.4354014 0.3517306 0.08039886 0.4189329 0.48104903 0.28882608 0.023952335 0.023170434 0.03379944 0.03862812 0.15329254 0.16765328 0.1347934 0.18520379 0.62363094 0.7419729 0.73622555 0.81199837 0.8359996 0.8816297 0.91478 0.84110284 0.9144263 0.9598734 0.68098605 0.7856791 0.800995 0.60308313 0.68750715 0.7964529 0.7986148 0.7720896 0.73461455 0.75385725 0.75793684 0.74808633 0.6364964 0.5554827 0.3630151 0.21743774 0.2568226 -0.016482316 0.015371911 0.021030646 0.15455852 0.32543755 0.3583819 0.5934306 0.6354524 0.63772786 0.1121407 0.62915254 0.6382208 0.010629276 0.6275472 0.056844722 0.12932026 0.15800941 0.17739272 0.25271976 0.29391754 0.037085194 -0.026587188 0.4295103 0.4005633 0.23091897 0.17418653 0.4562363 0.56896347 0.43041712 0.39215216 0.37669727 0.6225816 0.35019782 0.6389255 0.29670438 0.51128566 0.4921065 0.14937583 0.34913358 -0.07634705 0.15060826 0.3041832 0.4060532 -0.033851705 -0.25806722 0.2690258 0.46357077 0.34661397 0.04272969 -0.21994251 0.3847844 0.5167806 0.46928203 0.32549965 0.3794459 0.56238335 0.5193202 -0.15211706 -0.028390996 0.49701062 0.58902967 0.58282274 0.5338067 0.29015008 0.1997153 0.05846673 0.058576073 0.029157756 0.07352348 0.6048144 0.60627407 0.5667308 0.12156525 0.17476453 0.19831814 0.13537349 0.0459366 0.6700349 0.32900447 0.48711962 0.7324864 0.6680865 0.78451294 0.7851671 0.7948687 0.8744655 0.9207716 0.8634006 0.822368 0.56121486 0.6732961 0.49260193 0.645046 0.73293424 0.76255226 0.7566848 0.44455713 0.5721834 0.76550627 0.52954483 0.65342337 0.7115278 0.7288284 0.7029085 0.58842635 0.6350923 0.6474663 0.5877075 0.61165744 0.62158406 0.6422014 0.7015305 0.7220074 0.66274905 0.64654326 0.7226747 0.7014176 0.6285068 0.6249724 0.6272449 0.6600382 0.58786607 0.6003282 0.4221202 -0.16028202 0.3240597 0.22223862 0.37698776 -0.010914791 -0.063922964 0.01127705 0.32725334 0.38058442 0.54856145 0.5908705 0.6052456 0.4092567 0.5902618 0.5919414 0.38330734 0.5784149 0.16321495 0.4239778 -0.06317764 0.031559955 0.08609758 0.2020689 0.33216706 0.37192073 0.33344987 0.24326839 0.37204817 0.37885278 0.522056 0.4645637 0.3591327 0.35631883 0.35942322 0.5902087 0.5066822 0.32287794 0.33282086 0.66194546 0.2850834 0.61816096 0.48413992 0.5377805 -0.0058234856 0.10595999 0.37502673 0.39823365 0.51439285 0.6078455 0.64941674 0.023921385 0.52433366 0.60009456 0.61244154 0.390131 0.21291961 0.37969458 0.5567233 0.5176318 0.3699319 0.5782447 0.59457386 0.5942781 0.51975656 0.6076282 0.60711646 0.26498976 0.18320686 0.041127324 -0.03729487 0.0568662 0.13738619 -0.01892662 0.56304336 0.6115831 0.591292 0.49755654 0.33748752 0.15301248 0.023883969 0.07707317 0.18054232 0.6002952 0.2924352 0.5811341 0.6684928 0.6848856 0.6183189 0.7060473 0.77182305 0.76546144 0.79162884 0.8403264 0.82868296 0.90862095 0.89884865 0.88902676 0.8889029 0.8815573 0.84113157 0.85789514 0.8320043 0.83362645 0.82393825 0.32946578 0.288752 0.29948032 0.56396013 0.6007916 0.15895607 0.2596116 0.6823671 0.20516294 0.21583393 0.21644375 0.18341184 0.16421518 0.57923186 0.20377573 0.19711234 0.15258734 0.48821843 0.5164694 0.5144024 0.12730643 0.1998703 0.41721648 0.40158868 0.3752513 0.5312226 0.5272617 0.40469214 0.5500534 0.6000375 0.5526472 0.50750923 0.56465614 0.513435 0.30468276 0.29311204 0.2646433 0.24532466 0.49777403 0.5654441 0.56166613 0.5255729 0.4602273 0.3994401 0.36838865 0.36395085 0.28093213 0.30221152 0.5221042 0.55594647 0.51718616 0.4455868 0.51235473 0.39233214 0.32658917 0.30171493 0.28224507 0.27283126 0.56920063 0.4890135 0.38836077 0.31270254 0.25435933 0.20597915 0.45396584 0.36459672 0.31759527 0.13431789 -0.09097835 0.08169533 0.09051646 -0.09016215 0.49027443 0.34407312 -0.36489773 -0.031967796 0.1731421 0.47478586 0.5317402 0.55027413 0.5379336 0.52250123 0.54505754 0.56261444 0.51572245 0.46886635 0.5429503 0.27031282 0.4787835 0.39690757 0.165322 0.19238329