# vtk DataFile Version 2.0
Really cool data
ASCII
DATASET POLYDATA
POINTS 11003 float
-36.65229 45.863945 24.844646
-37.05393 45.982582 25.58453
-36.979748 45.975933 26.305462
-36.887875 46.19683 26.892187
-36.59194 46.61838 20.737942
-36.643032 46.670677 21.263025
-37.07752 46.618404 25.101694
-37.221214 46.50913 25.576355
-37.2198 46.47392 26.317432
-37.019505 46.607 27.003069
-36.61118 47.16525 20.71753
-36.651447 47.22255 21.226686
-36.58145 47.067894 21.870434
-36.86684 47.522022 24.796518
-37.262627 47.24648 25.674053
-37.31896 47.32397 26.464897
-37.130688 47.558887 27.41614
-36.884884 47.756096 28.025946
-36.87243 48.10517 25.218018
-37.227013 47.983963 25.93586
-37.28256 48.365707 26.657776
-37.254528 48.572796 27.278332
-36.92196 48.44052 28.084473
-36.624508 49.58235 24.891768
-36.800392 49.61435 25.591908
-37.06871 49.33988 26.762066
-37.16858 49.060314 27.498766
-37.0055 48.96674 27.86164
-36.575172 50.152203 24.883688
-36.70081 49.794117 26.829643
-36.574036 53.047447 28.342562
-36.597946 53.526855 27.572975
-36.608032 53.523224 28.300943
-36.554443 54.117645 27.65002
-36.594784 53.997105 28.091866
-35.731464 45.342934 20.731888
-35.7994 45.002148 22.09287
-35.912537 44.96252 23.892332
-35.840244 44.83532 24.9826
-36.114754 45.226482 26.023285
-36.001705 46.08808 20.015615
-36.263313 45.93746 20.644634
-36.398746 45.987526 21.270205
-36.038933 45.50919 22.292448
-36.196754 45.725075 23.311813
-36.482483 45.784157 24.651878
-36.643265 45.501186 25.601627
-36.617596 45.531162 26.208778
-36.200264 45.76436 26.965063
-35.67938 46.97073 19.327028
-36.16325 46.590767 19.965923
-36.454315 46.467728 20.389643
-36.37399 46.63324 22.284494
-36.161892 46.273014 23.49155
-36.338676 46.967793 28.02302
-36.111263 47.257473 19.895035
-36.477875 47.35949 20.528976
-36.307587 47.179173 22.689898
-36.547962 47.292103 24.223244
-36.432137 47.700565 28.433249
-36.103096 47.883003 28.76051
-36.353374 47.813465 20.860373
-36.408035 47.799683 21.445366
-35.924393 48.021847 22.512918
-36.13921 48.712242 24.443445
-36.565876 48.505466 28.492731
-36.18657 48.18071 28.785398
-35.751747 49.8234 23.923712
-36.311745 49.30261 28.413963
-36.185955 49.071686 28.724728
-35.909046 50.536934 24.129833
-36.268795 50.22611 24.428057
-36.1914 51.38251 25.457888
-36.139626 52.176613 28.9716
-35.757755 52.18329 29.790432
-35.864563 52.76892 25.658052
-36.3516 52.572426 26.948343
-36.493427 52.82527 27.724596
-36.312813 52.498398 28.689718
-36.07073 52.59426 29.576168
-35.8708 52.870155 30.047972
-35.74625 53.473614 25.830046
-36.327675 53.812557 26.896547
-36.28056 53.60357 29.295681
-35.892742 53.46167 30.013718
-35.82669 53.80027 26.201656
-36.04522 54.257133 26.864779
-36.3431 54.40381 27.521255
-36.31069 54.345093 28.442204
-35.967464 54.191547 29.256033
-35.868847 53.799137 29.88955
-35.90235 54.64131 27.154894
-36.035297 54.727085 27.640251
-36.052437 54.707798 28.19444
-34.753597 40.12472 25.623417
-34.89207 40.78667 24.80463
-34.978687 40.688576 25.477228
-34.771973 40.585552 26.419651
-34.817036 41.618404 24.286608
-34.995388 41.3789 24.681322
-35.11274 41.436398 25.454277
-34.85995 41.30288 26.387907
-34.94738 42.32822 24.407598
-35.061016 42.278748 25.172749
-34.921764 43.99412 21.942715
-35.211945 44.25449 22.461296
-35.164333 44.053806 23.47944
-35.261726 44.11737 24.140621
-34.691235 43.38439 25.473602
-35.102673 45.31483 20.060537
-35.365753 45.10338 20.583405
-35.56401 44.73329 21.982779
-35.34435 44.34347 22.24246
-35.497032 44.763336 23.041887
-34.901543 45.83258 19.239576
-35.48596 46.02887 19.505995
-35.308495 46.036945 27.597382
-35.463608 46.107014 27.704073
-35.147926 46.63851 19.013817
-35.622463 46.38392 19.40328
-35.421818 46.801224 28.279657
-35.20815 47.260353 18.980665
-35.335514 47.688255 19.477417
-35.495285 47.606846 28.886637
-34.783344 48.63648 19.199415
-35.614326 48.01148 20.07729
-35.491302 48.461376 21.587957
-35.514614 48.31805 29.021051
-34.875065 49.201378 19.95505
-35.31645 49.71219 21.876045
-35.216328 49.4893 22.1927
-35.737103 49.088165 28.819635
-34.736988 50.38746 19.893656
-34.953964 50.493275 20.24058
-35.208023 50.376263 21.418097
-35.43065 50.428753 28.368273
-34.82183 51.493397 20.665564
-35.045128 51.180424 21.372616
-34.747005 51.3933 23.028193
-35.255142 51.46059 23.886042
-35.209465 52.245827 30.095707
-34.70572 51.78974 20.754456
-34.77248 51.90398 21.271
-34.78226 52.11393 23.775768
-35.37974 52.619427 30.29293
-34.73565 53.007915 24.642328
-35.40687 53.61335 25.641901
-35.43067 53.470276 30.342741
-35.11342 53.166874 30.520897
-34.865757 53.7828 25.27698
-35.325405 54.006275 26.062347
-35.56868 54.447372 26.678726
-35.4832 54.35332 29.524775
-35.40075 53.979733 30.04023
-35.49099 54.736153 27.019766
-35.465446 54.901108 27.598099
-35.50654 54.877827 28.298172
-35.29446 54.66488 29.047762
-33.71226 33.194275 9.917074
-33.686386 33.148056 10.25066
-33.737522 33.51464 9.839933
-33.880234 33.584335 10.453524
-33.792454 33.70179 11.11747
-33.76122 34.17764 9.849989
-33.914734 34.350033 10.506416
-33.885525 34.403305 11.564495
-33.722813 34.557144 12.252817
-33.667755 34.826233 9.9536
-33.766468 34.98838 10.616501
-33.864716 35.4001 11.598651
-33.790115 35.34027 12.250577
-33.580345 36.088123 24.509083
-33.5825 35.923676 24.920591
-33.684875 35.98283 11.745705
-33.621452 35.828823 12.33463
-33.68519 36.642303 23.88163
-33.751617 36.553 24.597998
-33.673996 36.628498 25.27842
-33.643097 37.416668 23.79362
-33.80792 37.20504 24.665342
-33.69054 37.215828 25.506203
-33.604126 37.054256 25.741625
-33.54849 38.234184 24.580118
-33.771877 39.78667 24.249834
-34.36766 39.85148 24.93901
-34.28253 39.715187 25.371988
-34.345898 39.944157 26.446962
-34.21118 40.093597 26.820559
-34.309402 40.838295 23.991282
-34.25255 40.527355 26.998878
-34.006565 41.68552 23.279766
-34.16868 41.59492 23.80085
-33.816017 41.369247 27.419792
-33.514168 42.940628 12.227733
-33.54448 42.67084 13.563246
-34.16227 43.044693 22.677921
-34.040333 42.50575 27.053133
-33.551003 43.168514 12.854207
-33.553963 43.118557 13.565526
-33.53961 43.314487 13.964128
-34.181248 44.2855 21.18709
-34.585724 44.086994 21.6932
-34.695324 43.872845 22.225708
-34.27883 42.97244 26.590136
-33.809505 42.97413 27.158491
-34.655746 45.234543 19.902185
-34.400753 44.568142 26.30016
-34.10505 44.71354 26.73113
-34.62533 46.10024 18.858982
-34.346615 45.471622 19.43581
-34.30222 45.363804 26.873407
-34.456905 46.591053 18.54063
-34.38512 47.142548 18.34338
-34.639183 47.458946 18.524364
-34.62001 47.34263 28.626158
-34.845833 47.687164 28.909525
-34.031994 48.11747 18.437902
-34.35447 48.81327 18.750265
-34.6828 48.943207 29.007826
-34.029716 49.621063 18.677908
-34.544773 49.37763 19.257433
-34.743908 49.464348 28.814863
-33.99625 50.42674 18.83438
-34.466576 50.905598 29.0338
-33.838696 51.154903 18.981342
-34.330914 51.336685 19.7008
-34.591408 51.686176 20.445372
-34.49233 51.930534 29.895178
-34.208576 51.829468 20.033758
-34.23806 52.086525 20.605293
-34.26758 52.27586 21.51667
-34.051876 52.355534 22.641571
-34.595406 52.59908 30.34843
-34.90708 53.01832 30.520393
-34.217873 52.83092 23.55832
-34.52998 53.228474 24.56292
-34.671295 53.324436 30.42748
-34.905094 53.149715 30.51805
-34.19388 53.779873 24.91098
-34.19537 54.37572 25.994955
-34.46451 54.42463 29.42712
-34.675846 54.0925 29.974783
-34.463547 54.658607 26.763834
-34.76397 54.88053 27.614614
-34.583923 54.815075 28.409502
-34.61183 54.627354 29.03269
-32.98413 33.175404 9.286249
-33.264057 32.981503 9.771573
-33.341347 32.892513 10.408183
-33.178413 33.039803 11.13005
-33.122852 33.55976 9.23355
-33.4936 33.464508 9.544433
-33.40495 33.332577 11.336985
-33.206596 33.807247 12.084563
-33.197834 34.15797 9.218431
-33.521862 34.304874 9.562615
-33.55754 34.5834 12.4934435
-33.244118 34.666588 12.841179
-32.770718 34.903492 22.690287
-33.002663 34.9815 23.692604
-32.88941 34.750256 24.544504
-32.81053 34.9346 25.380495
-33.206436 35.327522 9.893715
-33.38731 35.40807 12.893983
-32.74783 35.53454 22.121695
-33.051987 35.429085 22.905254
-33.316105 35.700726 23.58756
-33.296368 35.394436 24.608355
-33.285034 35.8169 25.353117
-32.996716 35.90016 25.886087
-33.29421 36.04535 10.616484
-33.120262 36.455437 11.623994
-32.734276 36.37595 22.204433
-33.13323 36.49889 22.801073
-33.37124 36.32114 23.472717
-33.4858 36.446632 25.549282
-33.247932 36.62225 25.944561
-32.801857 37.0416 11.555507
-32.598713 36.976025 12.505686
-32.743187 37.385212 22.5621
-33.4632 37.365658 23.509499
-33.224262 37.286987 26.032179
-32.550793 38.188877 11.942971
-32.565056 38.05647 12.063031
-32.888256 38.44943 14.011299
-32.971584 38.56301 14.64609
-32.914177 38.514046 15.34869
-32.809498 38.886303 16.083515
-33.381676 38.09266 23.718695
-32.584568 40.128063 10.59479
-32.667812 39.75455 12.984653
-32.757328 39.689793 13.278491
-33.1587 39.395332 14.435653
-33.189552 39.474033 15.278774
-32.89301 39.670807 16.12991
-33.22157 39.643982 26.587523
-33.490253 39.908745 26.895838
-32.642166 40.882523 9.532247
-32.843426 40.884937 10.448782
-32.944817 41.08088 11.038122
-32.760536 40.367687 12.151612
-33.04921 40.363335 14.008759
-33.20504 40.603214 14.499794
-33.21467 40.824787 15.232639
-32.79723 40.596653 16.1279
-32.945183 40.812943 23.023743
-33.417522 40.65024 27.334213
-33.28535 41.039635 27.604801
-32.70607 41.058132 9.722791
-32.97981 41.65276 10.68578
-33.042706 41.673325 11.556759
-33.13164 41.33848 12.684956
-33.37729 41.653305 13.574697
-33.286713 41.63592 14.417944
-33.06806 41.479694 15.509421
-32.86611 41.395912 15.931739
-32.746426 41.457077 22.099476
-33.39921 41.524395 22.86536
-33.671432 41.94021 27.41323
-33.363243 41.22321 27.544142
-32.64528 42.43271 9.924348
-33.125816 42.60476 10.706997
-33.38445 42.523193 11.641923
-33.41446 42.751026 12.407315
-33.472992 42.24326 13.184536
-33.443886 42.63618 14.349896
-33.120785 42.407585 15.208447
-32.96448 42.83593 21.978348
-33.389362 42.05245 27.518694
-32.930782 42.180473 27.779293
-33.05385 43.341236 10.797331
-33.3273 43.39838 11.583538
[...]
POINT_DATA 11003
SCALARS features_00 float 1
LOOKUP_TABLE default
0.34742236 0.46669367 0.5340186 0.5889646 0.5591779 0.51289755 0.41776508 0.4813441 0.5546392 0.60950094 0.5428365 0.49103606 0.43189636 0.30264783 0.48247597 0.57024336 0.61562574 0.6123185 0.3189575 0.45926937 0.5281964 0.57104355 0.5917787 0.20502008 0.29089218 0.4823206 0.5672557 0.5780564 0.18178919 0.44856423 0.79180396 0.7079676 0.8040582 0.7382603 0.793185 0.50455123 0.32516122 0.16407081 0.2077949 0.4329561 0.5723323 0.5613982 0.515949 0.33779424 0.22292295 0.30394235 0.43201193 0.4966409 0.53850067 0.54523194 0.58103675 0.5788246 0.3939471 0.21271616 0.6411977 0.5600544 0.5451039 0.2916429 0.20347242 0.6188786 0.614729 0.47295153 0.40526152 0.18989602 0.12507161 0.5869143 0.5990976 0.08494947 0.5501496 0.56277514 0.13094406 0.14634879 0.22129159 0.7438566 0.77417743 0.34463486 0.5513773 0.6966019 0.7906283 0.83708936 0.84812844 0.44110012 0.6311983 0.91054845 0.896255 0.52597976 0.6420877 0.7296636 0.85358906 0.93949854 0.9258965 0.6805163 0.7474588 0.82439506 0.60732573 0.48518124 0.5809175 0.6624324 0.38233244 0.4557471 0.54787314 0.6530496 0.32145226 0.45854306 0.26949203 0.24678503 0.1263902 0.063096195 0.3274145 0.4907124 0.47326308 0.32235917 0.27496055 0.21695071 0.5266923 0.552109 0.42300695 0.4740199 0.5390285 0.55890536 0.60209197 0.5077865 0.48841262 0.6291879 0.40106657 0.4791542 0.2678501 0.5960759 0.3657881 0.12209596 0.043676656 0.55982053 0.44912642 0.4392923 0.2933278 0.40571994 0.44408798 0.35101765 0.16584215 0.12950271 0.75429356 0.4406767 0.38836873 0.1785462 0.8093407 0.28991294 0.4304229 0.8831213 0.85083485 0.41411322 0.5058521 0.60299194 0.9349381 0.92051935 0.647108 0.72780246 0.82609546 0.8911476 0.85124445 0.85901916 0.83889174 0.83396924 0.82845366 0.7945903 0.7825552 0.7685225 0.71323884 0.7315651 0.7102313 0.6469345 0.6472907 0.52896 0.55337703 0.52867377 0.559199 0.4723168 0.52125067 0.55631703 0.4205251 0.49708867 0.5478167 0.5620534 0.36844146 0.24753848 0.46578348 0.5374116 0.64648867 0.617208 0.3282278 0.5910951 0.11871876 0.24148463 0.44883198 0.41063374 0.38140762 0.048751116 0.34104213 0.4206048 0.4126358 0.42233878 0.30048516 0.28179568 0.22222185 0.30780554 0.2494885 0.45709604 0.061148375 0.01949574 0.5228006 0.46820435 0.12235012 0.5133828 0.48032838 0.4724629 0.5074705 0.56271863 0.40341696 0.3950175 0.51151377 0.4067258 0.39359784 0.47527868 0.4664296 0.38475767 0.52806795 0.51078266 0.46929836 0.64944506 0.5050287 0.45831776 0.37306526 0.26673073 0.76284444 0.83097327 0.22940567 0.31143662 0.8430887 0.8412843 0.40010574 0.52503574 0.83019495 0.88600767 0.59496504 0.69040823 0.7427659 0.80553323 0.8569577 0.86729294 0.8830163 0.8726202 0.8382442 0.843027 0.84028196 0.72119075 0.7941723 0.78250194 0.6769897 0.60012853 0.40401214 0.48887926 0.5636816 0.62467706 0.62673116 0.58849424 0.33844006 0.42109197 0.47105655 0.5491991 0.5802095 0.5997959 0.4829327 0.3744805 0.31954893 0.3849271 0.44961303 0.5733727 0.5774492 0.22104457 0.20670058 0.25035548 0.39225668 0.5580297 -0.053822584 -0.039797872 0.1767071 0.30290276 0.34964696 0.353835 0.310333 0.102335 -0.0007857755 0.040633347 0.25950518 0.37164903 0.37268382 0.4184932 0.5160764 0.26087058 0.21137863 0.19051561 0.035970874 0.20648149 0.29239556 0.34868607 0.31930962 0.05306755 0.5163989 0.45829093 0.26727605 0.27713877 0.24434197 0.19141133 0.2868828 0.34186137 0.33192727 0.29478982 -0.05089507 0.05646657 0.3663926 0.44339007 0.37395257 0.41553158 0.3780375 0.3871233 0.33471152 0.3921817 0.3549521 -0.0882325 0.32740226 0.27561486 0.48350626 0.47283632 0.45133024 0.4358613 0.4162689 0.3637427 0.07186139 0.16541283 0.4965765 0.50086033 0.47631603 0.45314065 0.4288569 0.3202963 0.25534347 0.010846183 0.44236946 0.060567763 0.48519292 0.2548562 0.3866487 0.33786872 0.4347497 0.3739429 0.343067 0.3802576 0.38834903 0.39732838 0.35333684 0.4481613 0.498393 0.5336796 0.54749703 0.534637 0.5385272 0.4701721 0.41092125 0.7336699 0.3569684 0.26138037 0.26913214 0.8104167 0.44349068 0.5197424 0.54739136 0.58158994 0.6556536 0.74376166 0.8086275 0.55277264 0.6094991 0.63728535 0.8592715 0.88332826 0.927984 0.89034784 0.8311329 0.6432713 0.53537273 0.25598767 0.393666 0.4646078 0.5561748 0.62809825 0.7847209 0.52472436 0.18256219 0.3808669 0.5816612 0.6488971 0.66231674 0.27642506 0.27506483 0.14699951 0.10674016 0.27547672 0.65987813 0.33373284 0.21610433 0.20025572 0.21248302 0.19122483 0.17864381 0.59713155 0.26872417 0.26852486 0.2845871 0.24608119 0.15719625 0.54104185 0.13629855 0.11293472 0.056016088 -0.110714756 0.035216875 0.30657184 0.24915159 -0.028442767 0.29591125 0.13100302 -0.04725723 -0.024901332 0.3238516 -0.114934616 0.009776033 0.20041443 0.29987872 0.29486844 0.23450169 0.24381474 0.046381164 0.19302696 0.33101994 0.30490515 0.30586642 0.21624029 0.31181878 0.58589476 0.63243085 0.68655276 0.7087122 0.31563842 0.21722618 -0.26010936 0.54024774 0.5878024 0.6396813 0.67533135 0.688743 0.38093755 0.24839042 -0.11586013 0.53671753 0.60667616 0.63862145 0.3683591 0.46564198 0.47580305 0.41902277 0.35807323 0.11903838 0.0049000103 0.41046938 0.47163332 0.41271213 0.3723508 0.29151 0.15070036 0.3421737 0.44024763 -0.14022648 0.39368576 0.15171632 0.29108804 0.3457156 0.22566286 0.34715372 0.23993099 0.42370862 0.32142955 0.3297973 0.4680093 0.49276888 0.49641982 0.48002237 0.5077567 0.44498414 0.66449434 0.34523743 0.2793217 0.2923245 0.48850596 0.6967071 0.49126208 0.5071697 0.5379434 0.5912597 0.63921684 0.68019426 0.4094146 0.45127934 0.44120556 0.8149254 0.83025706 0.8270378 0.822487 0.3050355 0.3396074 0.4209716 0.40064782 0.7708614 0.58390886 0.46098438 0.20182309 0.19757724 0.22802055 0.25444236 0.39634776 0.46086478 0.57477355 0.69755113 0.28938603 0.13791642 0.13128746 0.16474517 0.62794673 0.50515646 0.013741799 -0.05147046 0.0323264 0.013340443 0.5825119 0.30487564 0.14990027 0.4229073 0.20550416 0.19963917 0.16472004 0.07838203 -0.23225757 -0.22954926 -0.08292794 0.09198049 0.21020558 -0.20237723 -0.18887615 -0.15870649 -0.08528087 0.29777923 0.30696797 0.26574433 0.19009839 -0.21841975 -0.1904908 0.23318994 0.43333864 0.33677348 0.3241567 0.30387738 -0.19612613 -0.17302063 -0.14816092 0.044486135 0.44957975 0.46882772 0.58257484 0.63742036 0.7119431 0.33753693 0.3345234 0.013705976 -0.21001928 -0.16437642 0.4444647 0.5568886 0.55391675 0.6243394 0.69749904 0.72966826 0.7199478 0.33810225 0.3733318 0.024645306 -0.21286337 -0.25179106 -0.21248811 0.13857798 0.453367 0.67942417 0.6572225 0.40143174 0.37618735 0.24182385 0.30437377 -0.07019326 -0.19034782 -0.3458576 -0.36897492 0.104294956 0.38759172 0.53011054 0.5737689 0.5933114 0.6114773 0.6202976 0.35476768 0.06749395 -0.03813467 -0.556479 -0.4796055 0.4107643 0.5438247 0.51856834 0.34982157 0.30611822 0.059788197 0.0554996 0.084529944 -0.07746705 -0.2151578 -0.029245757 0.1982556 0.17662287 0.032771625 0.014983833 0.25161946 0.24423018 -0.07202573 0.5838169 0.28379333 -0.27882177 0.56728995 0.6036284 0.6085026 0.17916152 0.25229037 0.5083108 0.50700665 0.4945453 0.3914396 0.5941609 0.60960245 0.35975564 0.29541013 0.5249106 0.5340499 0.5204571 0.41783822 0.52380025 0.5812248 0.37714228 0.21853176 0.29671928 0.35802352 0.46199757 0.50150275 0.53753155 0.52137625 0.44456196 0.3344425 0.4060291 0.36634445 0.2985947 0.2648682 0.28221324 0.31782705 0.44496733 0.57715434 0.62131256 0.4541539 0.48576504 0.5156634 0.4384961 0.4292749 0.27120584 0.29396737 0.3349892 0.49443385 0.55079865 0.6327241 0.49243554 0.5232929 0.50884724 0.51341003 0.63259685 0.6244322 0.5281972 0.44325453 0.30156794 0.27467713 0.34122798 0.38042143 0.40718108 0.5039806 0.5020117 0.30447805 0.25101912 0.26620612 0.36652035 0.39481077 0.42995065 0.68827295 0.61466223 0.20176971 -0.066766165 -0.060316198 0.6878747 0.6087265 0.10515901 -0.029153876 0.16491225 0.5233973 0.550169 -0.047999717 0.08353579 0.4506687 0.5022273 0.44022387 -0.01861465 -0.16722722 0.46169394 0.2636568 0.26796344 0.15557483 0.20187533 0.19809559 0.29044968 0.2602748 0.32369247 0.39376777 0.3925412 0.47499233 0.5362007 0.3206328 0.32856303 -0.22182605 0.22066976 0.4591383 0.56959176 0.6479243 0.3149653 0.33053178 0.67874956 0.30524907 0.33350474 0.6315985 0.3417319 -0.2651431 -0.3447333 0.10950613 0.5143942 0.5397247 0.20554698 0.1523837 0.028208971 0.20977058 -0.4648111 0.0052906275 0.119601116 0.1733914 0.32053682 0.43278712 0.46760833 0.39177334 0.3958003 0.36964694 0.31209165 0.16878784 0.20765197 0.078748174 -0.0521266 0.019324794 -0.18108064 0.4135537 0.3855257 0.032002613 0.19114801 0.11918476 0.075970106 0.41207758 0.38975358 0.3158397 0.4318192 0.23818034 0.1617111 0.14552015 0.36931854 0.32262042 0.45371813 0.5358534 0.5431049 0.5084187 0.27630153 0.034432873 0.43512866 0.3801954 0.28813326 0.5810641 0.5578901 0.28105193 0.419693 0.26227263 0.37752882 0.5972941 0.5807881 0.28043196 0.22412059 0.18743901 0.4698117 0.46060717 0.53079444 0.569597 0.5531222 0.15414554 0.20874965 0.13960156 0.28662702 0.3186403 0.20949027 0.24682593 0.11417209 0.17841198 0.3075022 0.37194356 0.2906315 0.3346396 0.42284498 0.47957653 0.5472997 0.563335 0.5188363 0.4409494 0.50151116 0.562346 0.589214 0.57250535 0.6669996 0.68874884 0.6464143 0.5529038 0.39322734 0.63483006 0.6388898 0.42977446 0.34408677 0.26560125 0.26682618 0.3159209 0.3645468 0.50802946 0.53505343 0.2654099 -0.0051068403 0.33334702 0.4715216 0.18254486 0.3625985 0.2535497 0.3751694 0.31810516 0.39827058 0.13704863 -0.056652613 0.302704 0.26716173 0.28793764 0.016511954 0.104182646 -0.033529807 0.06567225 -0.30328786 0.22678548 -0.208164 0.28944844 0.3246902 0.36876032 0.3845327 0.29315382 0.2726887 0.62344 0.24705404 0.27031374 0.5800559 0.29372126 0.2475823 0.528466 0.3285899 0.29885942 0.1938498 0.22031556 0.37321538 0.3665292 0.3624665 0.34639686 0.25024655 0.049217343 0.13303539 -0.00940448 -0.09550428 -0.13560545 0.3293996 0.34061605 0.3680843 0.3806358 0.38727987 0.35777414 0.2681429 0.070249155 -0.025927559 0.003884077 0.07087368 0.11739417 -0.034331657 0.21449964 0.34579867 0.38968194 0.43291992 0.3659045 0.3940001 0.25679585 -0.05887171 -0.070406266 -0.15285175 0.07062298 0.13706137 0.35975486 0.43500745 0.337999 0.35617656 0.17949471 0.24454005 0.24399 0.41623703 0.05047871 0.16252173 0.2398685 0.19338705 0.28081754 0.27861816 0.01308544 0.03718385 0.18690228 0.46054515 0.2422606 -0.0032851547 0.15347885 0.25587648 0.083417 0.42375717 0.2808693 0.2941026 -0.30866322 0.48106152 0.4340406 0.31273246 0.28936595 -0.3043157 0.24860105 0.49423903 0.16820817 0.004215002 0.13970399 -0.10403931 0.26921546 0.24106082 0.21216609 0.22156462 0.3616881 0.4370181 0.15054356 0.14527366 -0.010367185 0.21692869 0.40103734 0.19590057 0.25388 0.48353338 0.3628798 0.42344314 0.4772878 0.5526476 0.58862513 0.561188 0.4473768 0.517596 0.5527848 0.5834172 0.67625546 0.6475619 0.5875234 0.68803847 0.6887368 0.6388726 0.5709026 0.46967632 0.2832238 0.5802137 0.6390498 0.2377919 0.19011533 0.26613557 0.20023859 0.41326436 0.5076821 0.5335256 0.54034585 0.5686651 0.4783876 0.49851522 0.5091386 0.46908382 0.31286412 0.40606806 0.17150292 0.099454485 0.34202796 0.29404777 0.13493456 0.118017316 -0.07627469 -0.11581422 0.11881005 -0.066811025 0.5763326 0.088361606 0.07491432 -0.032024987 0.29733628 0.27905706 0.5678317 0.62823 -0.0099975765 0.28731528 0.2453342 0.23808724 0.45208976 0.5439414 0.5774617 -0.042052567 -0.10506019 -0.40615645 0.16651665 0.2315259 0.31863168 0.07612683 0.11323104 0.18245026 0.2673012 0.22556373 0.35616148 0.0008403808 0.22801074 0.21014883 0.2089255 0.19688807 0.40669268 0.32371336 0.27102008 0.23369065 0.3754334 0.36040246 0.34612805 0.24537182 0.34163848 0.33441195 0.31757322 0.35294533 0.35446557 -0.08012899 0.42098325 0.4270349 0.35155106 -0.16320488 -0.12215816 -0.25498796 -0.008434698 0.4709959 0.49655402 0.339837 -0.349001 -0.17748263 -0.41465577 0.1034313 0.10794044 -0.119500846 0.036799338 0.32298553 0.36092043 0.46538013 0.50470126 0.24980292 0.09036876 0.26913598 -0.20866804 -0.20106794 -0.22251049 0.4046246 0.4586431 0.45457977 0.43201846 0.355524 -0.18245721 0.14475715 0.15127844 0.30237716 0.44684535 0.42845175 0.3071781 0.0543658 0.23351377 0.11942946 0.29086518 -0.049179625 0.05647592 0.43163073 0.39040458 0.2982815 0.24143822 0.31213978 0.53559625 0.36653453 0.3327927 0.29048377 0.26004952 0.3256901 0.27375484 0.18743724 0.3842807 0.4756254 0.5016484 0.3031507 0.28103235 0.1077023 0.13428289 0.21081036 0.09431577 0.016884267 0.11856532 0.4906596 0.27176344 0.223309 0.2810918 0.2330971 0.2095174 0.17743182 0.471077 0.3360637 0.36318594 0.53254485 0.48741037 0.4453407 0.46259546 0.52527344 0.55315816 0.6609234 0.6390599 0.5805906 0.68691015 0.68103284 0.5306754 0.42374104 0.28680682 0.13420084 0.14923051 0.33064455 0.46980357 0.59654367 0.6556388 0.14525041 0.15746501 0.3335185 0.50597674 0.5375041 0.5513209 0.53655636 0.48072872 0.39606583 0.06288969 0.0937631 0.3501125 0.070687816 0.0702805 -0.11493454 0.31712043 0.32720044 0.2929254 0.6068367 0.069962226 -0.06698957 0.27273956 0.30727527 0.5564804 0.6055234 0.6257333 0.61496234 0.26060376 0.29738042 0.35099798 0.51639944 0.6424314 0.62637085 -0.105384104 0.24140665 0.5781392 0.5904797 -0.20648839 -0.15457562 0.15421358 0.35089195 -0.20312726 -0.19531815 0.03795331 0.0692761 0.1531234 -0.17921413 0.12987378 0.13016045 0.25947702 0.23823313 0.27599496 0.2513862 0.19711582 0.068233386 -0.11674243 0.015359275 0.17930368 0.41018653 0.35449356 0.3002653 0.38104174 0.40139765 -0.023295477 0.082042865 0.3506783 0.27684614 -0.30124977 0.42130023 0.4143237 0.31184003 -0.45674923 -0.46078402 -0.37560576 0.5105687 0.48704654 0.24748403 -0.12771256 0.5271251 0.5338917 0.42920554 0.18039691 -0.2875547 -0.08064843 0.022299014 0.25697538 0.4489318 0.4937647 0.44665998 0.45174974 0.44454193 -0.18801552 -0.26267552 -0.329539 0.09786934 0.4412474 0.4509197 -0.09314863 -0.09779072 0.08579771 0.25551194 -0.32779533 0.41661322 0.43012822 -0.045886397 0.116147615 0.26107794 0.22912712 0.075113386 -0.5346954 0.019686855 0.44550708 0.5503639 0.3915975 0.38564706 0.10527702 0.2547733 0.33484694 0.34181583 0.33409142 0.299494 0.044684917 -0.14441538 0.2633765 0.34792522 0.4691013 0.53945935 0.5260562 0.36790335 0.3499172 0.31886095 -0.08090639 0.37617108 0.39981058 -0.010519952 0.2249242 0.2683444 0.325657 0.5203023 0.5245024 0.50318724 0.48285174 0.27398074 0.3021559 0.34620863 0.3375418 0.29185405 0.3523543 0.41505742 0.45480403 0.51036304 0.22017562 0.18323353 0.19727412 0.2355716 0.3866545 0.3989413 0.31962863 0.4217048 0.34332937 0.40101665 0.45969737 0.619556 0.66168106 0.6656506 0.6195345 0.5224545 0.24464208 0.13389336 0.15099713 0.17387146 0.21851684 0.29371345 0.4041263 0.59554696 0.61020863 0.37825355 0.1790852 0.119956754 0.4843135 0.36159343 0.5494658 0.36111587 0.5115611 0.591403 0.4651356 0.26607624 0.33764312 0.41471624 0.50732523 0.5305221 0.05272051 -0.03298019 0.3175599 0.3615659 0.37717545 0.43775627 0.048556782 0.06367402 0.24817407 0.2796503 0.3268035 0.50783 0.5825353 0.5876961 0.570382 0.044285007 -0.048030376 0.19739038 0.5504173 0.5961636 0.58536816 0.56482273 0.09172936 0.12268336 0.1998269 0.5958151 0.5678531 -0.020446125 0.10836154 0.23397133 0.56787646 -0.23328725 -0.15281013 -0.3300184 -0.31445575 0.40577525 0.43428263 0.20863119 -0.2997605 0.091766484 0.07177932 0.29790795 0.26847225 0.36220068 0.3315204 0.20236266 0.10677336 0.07140606 0.163385 0.38512093 0.3828532 -0.0068879277 0.3755777 0.15522635 0.30529612 0.2119082 0.42220998 0.24656716 0.48031488 -0.050767593 0.47358638 0.51457036 0.40792173 0.3043283 0.17517966 -0.056974247 0.36579442 0.36839217 0.44173062 0.4342206 -0.49129233 -0.14438447 -0.1575803 -0.21744882 0.42301923 -0.06407523 0.099574745 0.0752055 0.33273527 0.3860822 0.18115784 0.22042266 0.1267776 0.48285168 0.40692878 0.365079 0.3016448 0.3834919 0.3270443 -0.22131443 0.4529263 0.34687984 -0.13822912 -0.079972126 0.24285121 0.31850213 0.41059119 0.44075 0.40465963 0.33851504 -0.0019171406 0.4704873 0.43738562 0.2764216 -0.136121 0.37012914 0.44896317 0.4896769 0.26556772 0.23786812 0.2859673 0.34141386 0.43338224 0.44074547 0.43779245 0.25598255 -0.12611198 -0.13681537 0.346305 0.40912962 0.49164808 0.45735246 0.3167115 0.33961672 0.39870268 0.42481002 0.27904636 0.16915569 0.07983473 0.27173802 0.15639463 0.11148499 0.07871506 0.6005261 0.11442642 0.14463133 0.18047121 0.18056351 0.27523544 0.21563885 0.535604 0.45592126 0.4408018 0.30671573 0.26869762 0.07604723 0.09331404 0.12441668 0.21985723 0.25900292 0.21394795 0.3379995 0.54119 0.6350572 0.6340889 0.49505576 0.4682466 0.4125866 0.28105497 0.2604519 0.21412045 0.01804024 0.1425781 0.14463228 0.13246818 0.2384977 0.37319964 0.4883723 0.624671 0.6200088 0.5505525 0.2733667 0.07782507 0.5716975 0.48210052 0.09647129 -0.03993749 -0.060237437 0.1298568 0.35136262 0.82286716 0.7693522 0.0089844465 -0.035786618 -0.047281448 0.20441273 0.487952 0.5422377 0.5221367 0.8859023 0.8960645 0.8076369 0.07941909 -0.05413243 0.09090978 0.5348963 0.79773915 0.8655303 0.9600973 0.8732933 0.7374981 0.12530564 0.13603283 -0.015425386 0.5450845 0.72106373 0.77678293 0.84928703 0.7514566 0.40700352 0.4010819 0.16852036 -0.31589144 -0.4180763 -0.0846624 -0.03671825 0.70394707 0.72018147 0.6715355 0.3838871 0.24405748 -0.019000404 -0.3742915 -0.24246037 0.4891342 0.13861884 0.2686981 0.31239843 0.15208583 0.07647608 0.09814978 0.16205722 0.21249345 0.32896405 -0.06273427 0.23330972 -0.00796961 0.12327346 0.14006586 0.38257462 -0.11916824 0.4765846 0.109908886 0.027567636 -0.072949246 0.14460406 -0.20293431 -0.13224113 0.25769788 0.31165573 0.32793897 -0.5731176 -0.44452736 -0.2879406 0.3125915 -0.086507015 0.31675988 0.1919003 0.1108134 0.2600137 0.30015823 0.260628 -0.08297657 -0.109851636 0.36429864 0.26877236 0.16263984 -0.12091343 0.17132111 0.44108844 0.38881892 0.16205291 0.38560143 0.3690979 0.27161974 0.33206058 0.43767256 0.5683237 0.6242688 0.5836271 0.5831455 0.21957195 0.2664212 0.41476348 0.40071318 0.19640358 0.6551169 0.6853131 0.6798258 0.33068863 0.4445973 0.51604784 0.48045495 0.33215117 0.24676381 0.32127655 0.34195036 0.38464585 0.4258606 0.4369658 0.3621755 0.33058676 -0.08872002 -0.10399944 0.13354447 0.1449601 0.2960546 0.1987218 0.22956592 0.14576395 -0.08610369 -0.0035349913 0.29155725 0.2886845 0.30765915 0.35917667 0.37974745 0.67190605 0.53745604 0.4851057 0.21247754 0.23479149 0.074823216 0.11481886 0.06441871 0.18351689 0.2502454 0.29534766 0.21112019 0.48774678 -0.024984263 0.06460096 -0.040094815 0.22693211 0.19082326 0.37075555 0.5050657 0.59560025 0.60909045 0.24946907 0.0945199 0.5779984 0.5315131 0.22549865 0.1693531 0.055399343 -0.1876231 0.4493643 -0.025798075 0.04818869 0.074880295 -0.10752363 0.2832035 0.7637478 0.73967457 0.66050863 -0.11008297 -0.2551616 -0.06377714 -0.13748853 0.41963637 0.7946718 0.81884897 0.69332075 0.65602654 0.13093683 0.09119295 0.034774985 -0.17792206 0.4310645 0.47855556 0.7272636 0.7089546 0.25283417 0.19512668 0.15764897 -0.36756742 -0.18672377 0.52446634 0.6338848 0.67062294 0.52299887 0.33765924 0.37380725 0.31824246 0.3027357 -0.427988 -0.3969924 0.5537201 0.5578885 0.60835516 0.6698427 0.58754826 0.46803737 0.2575632 0.30644122 0.51022637 0.60165215 0.6544589 0.68401676 0.5544294 0.21299239 0.23622724 0.4304005 -0.022837711 -0.11244546 0.2227124 0.11558474 -0.040486716 0.21069443 0.38870236 -0.15802813 -0.1251835 -0.038144432 0.16664597 0.35442942 0.23838624 0.19041835 0.08997311 -0.13034937 0.008372134 0.294964 0.2588706 0.19033116 0.06700966 -0.14489776 0.07400594 0.25220934 0.19839852 0.08701639 0.32422292 0.15093666 -0.025457881 -0.23202166 0.246732 0.115394965 -0.19343916 -0.08954562 -0.0681875 -0.38212615 -0.30364576 0.060250424 -0.06994745 0.09674748 0.12448707 0.00054745004 0.10278471 0.05783118 0.2970855 0.105856344 0.091795355 0.0127387345 0.5839416 0.661028 0.54918563 0.03854417 0.16511098 0.3062114 0.27684963 0.14742404 0.40507165 0.33483148 0.60284734 0.6924376 0.70819056 0.6931753 0.36316192 0.4568357 0.43869126 0.32717916 0.42348164 0.43360978 0.4207758 0.36812302 0.3828