# vtk DataFile Version 2.0
Really cool data
ASCII
DATASET POLYDATA
POINTS 11147 float
0.47500026 52.336178 25.2564
1.0636809 51.253098 25.536037
1.2427988 50.988697 31.07182
1.2378643 50.8476 31.562511
1.3584902 50.51625 32.06513
0.81223583 51.65254 25.048988
0.7202988 51.664364 25.674726
0.8550323 51.65224 26.266428
1.3414068 51.858276 27.136768
1.3012147 51.812775 31.10541
1.1365869 51.51649 31.676052
1.1573107 51.46248 32.07065
1.3560088 52.605373 22.94619
0.7975242 52.484406 24.009735
0.72382295 52.614273 24.521688
0.5818862 52.530113 25.58062
0.64951015 52.41535 26.095863
1.172725 52.7121 26.886616
1.2680205 52.039818 31.710854
1.3106278 51.927597 32.131027
1.3473948 53.120987 22.807024
1.0068861 53.32713 23.691578
0.881768 53.254295 24.429419
0.82917905 53.25078 25.384794
1.1080315 53.251617 26.173761
1.266383 53.956112 23.80358
1.229687 53.891933 24.667027
2.1226704 49.66065 20.953617
1.8851837 49.88888 21.603443
2.3453565 49.827347 22.578249
1.6840914 50.004757 31.636787
2.1230268 49.805744 32.31649
1.9078056 50.63296 20.801065
1.658851 50.697002 21.849335
1.6252998 51.021454 25.275671
1.7744286 50.44939 30.62677
1.4534352 50.476067 31.294762
1.4587822 50.755367 32.51203
2.0179875 50.37339 32.67721
2.3640723 51.508545 20.074055
2.1747885 51.16775 20.420078
1.7855469 51.04042 22.270313
1.5177357 51.564087 24.134668
1.5794076 51.59976 27.176712
1.5409737 51.42483 30.6727
1.4006306 51.70194 32.43095
1.6795592 51.485626 32.77031
1.7805648 52.28997 27.337261
2.202897 52.02851 28.078798
1.5941685 52.20372 32.23665
1.7866013 51.9821 32.67759
1.5064409 53.66786 23.10071
1.7486057 53.490097 26.57922
1.5080752 53.22831 26.761679
1.7691228 52.610447 31.746119
1.4552639 53.765213 23.145554
1.9741511 54.381165 23.82489
1.5840799 54.216404 24.467169
2.128319 54.381176 24.966686
1.8969594 54.03223 25.994913
3.3203924 47.243633 35.694733
3.183113 46.922535 36.637886
3.2407827 46.77359 37.441765
2.9785156 47.853508 35.60579
2.9908104 47.47703 36.74065
3.026487 47.389236 37.238293
3.1875994 47.214264 37.877575
2.6007514 49.108753 21.57877
2.8466005 48.644775 21.98994
3.2647214 49.280346 29.83347
2.8488154 49.325752 30.23543
2.8269048 48.42745 35.606514
2.8470697 48.578728 36.65177
2.5547884 49.59669 20.340303
2.9195833 49.796734 29.65891
2.500855 49.697433 30.457048
3.2720747 49.826153 35.210636
3.1216543 49.525074 37.313873
2.4668634 50.33814 20.114456
2.6177607 50.581776 24.792118
3.3501053 50.025112 35.22402
3.0895495 50.03341 36.846336
3.1817222 50.15294 37.114555
3.1403003 51.61829 19.177143
2.8566678 51.78364 19.467194
2.5659397 51.306633 29.422186
2.539165 51.60128 33.267586
3.41887 51.128517 37.10151
3.0906332 51.901497 19.230453
2.9257884 52.301884 19.713726
2.4544575 52.237926 20.80249
3.132836 52.836464 19.974154
2.939388 53.061558 20.581339
2.5697994 53.495144 22.409885
3.1049743 52.871567 29.740257
2.8777518 53.0155 30.269089
3.009128 54.628796 22.96984
2.691138 54.764805 24.347906
2.9685376 54.72519 25.27735
4.2514806 42.70972 18.708883
4.1931233 42.88022 19.623556
4.2508364 43.053387 20.038546
4.1004066 43.93136 17.401594
3.7615075 43.82912 18.78942
3.935841 43.35754 19.439577
4.1193867 43.370834 19.989038
4.302776 44.782925 15.486164
4.048162 44.776394 16.114933
4.0026426 44.62721 17.20704
3.7190678 44.88076 18.372292
3.6595528 44.94468 19.202732
4.3722377 44.888752 21.654238
4.271479 45.256924 15.566417
3.7651494 45.178818 17.591116
3.6303158 45.864315 20.594687
3.983866 45.3712 21.175606
3.839741 46.07944 36.779163
3.78267 46.09735 37.31358
4.3806605 45.841923 15.94388
3.6651704 46.18531 20.438803
3.6601534 46.83844 35.796013
3.7259042 46.411827 36.469444
4.0199046 48.2526 23.113724
3.9319367 47.571507 34.87597
3.3655248 47.322147 35.392723
3.839231 47.73561 39.246094
3.8780172 49.094112 29.040342
3.4387658 49.02607 30.593975
3.4230118 49.000496 31.141247
3.6435583 49.413704 32.369587
3.8777337 48.325737 39.30821
4.0914187 50.008675 24.530745
3.9289286 50.44904 25.407578
4.0509872 49.32084 34.54153
3.5468712 49.272717 38.417503
4.3502855 49.377693 39.753853
3.6926517 50.830593 19.029827
3.984443 50.27584 34.68263
3.4599924 50.726345 35.70053
3.576405 50.77792 37.119884
3.709659 50.480766 38.438534
3.3896897 51.374397 19.051056
3.8860679 51.202934 35.23908
3.563933 51.186344 36.407078
3.7050369 51.740284 37.08228
3.8669052 51.268955 38.293182
4.2942867 51.580837 39.097027
4.0285416 51.772385 47.64069
3.836088 51.918617 48.28
4.1663055 51.905956 49.049664
3.5613644 52.032143 19.07402
3.6891015 52.62002 19.367992
3.826396 52.520893 32.766544
4.2381845 52.518417 36.594086
3.9801416 52.266663 37.124756
4.087139 51.930225 38.6074
4.270954 52.239883 47.025913
3.803808 52.45668 47.677715
3.7499208 52.443684 48.442726
4.084637 52.507698 49.178238
3.900716 53.22163 20.015749
3.6150656 53.3182 20.410212
3.2925913 53.422813 21.24674
3.491941 53.095634 31.28605
3.5138345 52.6292 32.53143
4.1593766 53.456783 47.266117
3.8833013 53.2466 47.742683
3.900838 53.25932 48.570724
4.172234 53.287483 49.10153
3.4337199 54.39118 26.313694
3.6023645 53.623173 27.727076
4.2076206 53.927414 47.734135
4.178111 53.916687 48.438942
3.2688713 54.66225 22.948685
3.9383461 55.093567 24.013046
3.702586 54.86819 25.236929
4.058404 54.5662 26.26151
4.839663 42.22397 17.96319
4.5910764 42.346146 18.599684
4.6921973 42.277477 19.190742
4.4790134 42.595028 18.01195
4.577401 42.72736 20.123846
5.094386 43.222576 21.711119
5.387654 42.813347 40.76728
5.3673515 42.826015 41.336147
5.366181 43.142876 41.917522
5.2579618 43.605858 14.947222
4.594224 43.872192 15.822048
4.5295954 43.71798 20.832418
5.2982254 43.436234 22.277515
5.3248243 44.071068 22.781342
5.238695 43.58169 40.731647
5.1799064 43.592033 41.399124
5.30438 43.552937 41.99231
4.6738276 44.513844 14.989569
5.1472816 44.59195 22.492062
5.2591295 44.54879 22.759853
5.17443 44.724083 42.317703
4.5555887 45.300453 15.025344
4.4641466 45.6089 15.311556
5.261968 45.819412 22.306644
4.605617 46.275646 36.27164
4.5328226 45.95921 36.6739
4.6225066 45.759563 37.38482
5.2694325 45.616154 41.49947
5.2142277 45.01864 42.3627
5.1497817 46.041862 14.818612
4.9361734 46.27649 15.708419
4.251038 46.770092 35.573936
5.1633644 46.16399 40.607403
5.1754656 46.916435 16.574322
4.548335 47.324383 34.977894
4.57006 47.1528 40.158577
5.2839127 47.39857 41.462322
4.443382 48.836582 29.434101
4.788118 48.62394 30.293718
5.027936 49.188347 32.067093
4.4931374 48.70152 39.86605
5.3925986 48.02625 41.871117
5.0425897 50.387825 25.970287
4.444979 50.121853 34.463802
4.472138 49.8705 39.685295
4.614583 49.59947 40.075245
5.262383 50.024822 47.86384
5.195338 50.051777 48.10225
5.2034235 50.229923 48.939434
5.0653796 50.190815 40.635353
5.360984 50.73227 41.439247
5.332468 51.121544 46.588287
4.826832 50.846027 47.540253
4.5451694 50.946556 48.362953
4.8659625 50.908638 49.039852
4.139205 51.16546 18.77912
4.40013 51.16374 34.618828
4.8178945 51.665794 46.76149
4.5756197 51.759544 49.307785
5.1592264 51.793747 49.717148
4.441612 52.268883 19.092552
4.399836 52.597267 38.614323
4.613155 52.396935 39.137043
4.988741 52.172718 46.508465
4.404394 52.517345 49.56214
4.7506585 52.68385 49.82011
4.6573257 53.139263 19.719873
4.966034 53.474884 28.249908
4.5436363 53.108112 29.49687
4.3094687 53.034676 30.585514
4.822941 53.20339 36.507545
4.855285 53.320988 37.6629
4.6247067 52.92622 38.499462
4.890993 52.772686 39.050407
4.7076993 53.38747 46.784615
4.6261992 53.482155 49.531254
4.9569016 53.287727 49.83117
4.380889 53.79132 21.046188
4.098571 53.761738 21.28878
4.8273845 54.074173 47.130142
4.7345853 54.3204 47.656517
4.7181664 54.3042 48.42311
4.813634 53.93708 49.218563
4.2726536 54.823402 22.8327
4.402752 55.011864 23.710157
4.9044 55.029587 24.884045
4.5843115 54.96858 25.1486
5.021787 54.53106 48.310253
6.047671 29.143192 49.689396
6.0526304 29.00005 50.505844
6.073042 29.070583 51.07539
6.088182 29.766977 49.07892
5.71218 29.671133 49.70125
5.6439853 29.570093 50.432507
5.850849 29.598955 51.270756
6.2026587 29.515638 51.749912
6.023905 30.297586 49.07934
5.6752596 30.353289 49.711235
5.625353 30.580381 50.455666
5.8276777 30.474245 51.239693
6.2146826 30.7219 51.70368
6.3059525 30.982111 58.4789
6.331783 30.944897 59.112633
6.205289 30.972534 49.11234
5.9833355 31.021236 49.653793
5.9607577 31.249538 50.476585
6.0778437 31.133495 51.188503
6.349403 31.644276 57.479614
6.2579565 31.455868 58.420788
6.3031645 31.43528 59.472115
6.3408256 31.710651 59.82196
6.4393115 32.848454 56.994152
6.2843804 32.415848 57.7281
6.2155204 32.45256 58.516212
6.2691355 32.424488 59.197582
6.300679 33.40815 57.729946
6.2163954 33.765343 58.474037
6.350694 33.61062 59.16173
6.366468 34.468983 57.93631
6.3459682 34.474422 58.52962
6.3456845 34.23603 58.942806
6.4380636 34.914 58.43327
5.3597455 41.98174 17.935482
5.3274803 41.842808 18.618418
5.8094673 41.957684 20.411758
6.066002 42.25412 39.97343
5.9817104 41.95758 40.82921
5.947167 41.971096 41.37408
6.014867 42.17321 41.89998
6.371965 42.608433 13.994082
5.4861593 43.012745 15.827606
5.539937 42.827335 21.791538
5.4649897 43.20558 22.452522
5.9479074 43.098705 23.086407
5.894905 42.81712 39.723415
5.5948515 42.454266 40.682793
5.616402 42.457222 41.518166
5.8453093 42.723694 42.178963
6.1240144 43.11779 42.683422
5.965718 43.482674 13.92715
5.5482025 43.47707 22.643879
5.82568 43.659523 23.238844
6.346416 43.867134 23.996155
6.201607 43.21065 39.25068
5.6664953 43.635464 39.65803
5.58628 43.39375 42.363598
6.2024517 44.071518 43.145218
5.488402 44.20382 14.417225
5.4299335 44.264206 22.852198
6.2408233 44.491196 23.877314
5.4263387 44.855705 42.667072
5.560999 44.719997 42.82734
5.9323664 45.485394 13.858735
5.627202 45.506668 22.637789
5.21112 46.134613 36.78202
5.244808 45.870422 38.840168
5.6078095 45.001587 42.851757
6.0702205 46.33801 14.256565
5.668963 46.359737 14.732356
6.0983386 46.713512 23.31481
5.195539 46.56077 36.18147
5.603202 46.424282 36.594116
6.0504546 46.710987 42.99457
6.3118906 47.31999 14.82373
6.071316 46.956997 15.409782
5.9727836 47.255325 23.568546
[...]
POINT_DATA 11147
SCALARS features_00 float 1
LOOKUP_TABLE default
0.65950954 0.61459064 0.62356997 0.6318432 0.63537586 0.6270555 0.6513427 0.6417292 0.5502089 0.61958086 0.6332331 0.63343734 0.48073053 0.5749097 0.62508935 0.662516 0.65131795 0.59000564 0.6230699 0.62514424 0.501698 0.5628311 0.60641384 0.646822 0.6366933 0.5582001 0.5940185 0.49364486 0.45841086 0.36552325 0.6116748 0.63932085 0.49869645 0.4484114 0.5624181 0.59122765 0.6187567 0.637329 0.6384823 0.49732706 0.49779242 0.3975324 0.5147914 0.5008558 0.5974304 0.6261405 0.6226796 0.50462604 0.33141717 0.6025518 0.60314 0.52130854 0.57836556 0.5856211 0.6100079 0.52466273 0.5202148 0.5610701 0.51627296 0.5595932 0.56998134 0.57565904 0.56894636 0.5771848 0.55269086 0.54765797 0.54818064 0.43726623 0.38994607 0.40423834 0.4456737 0.6067499 0.53625536 0.50686586 0.41653812 0.5059329 0.50365853 0.37467974 0.50472134 0.32619935 0.4836002 0.3722772 0.3443069 0.50359505 0.5018375 0.45682943 0.6270416 0.32902056 0.50494677 0.49680394 0.45018545 0.47892544 0.43238473 0.37848598 0.29811358 0.40982363 0.40119585 0.45914742 0.39295834 0.39941812 0.3791821 0.34779066 0.3718886 0.3933593 0.3864339 0.34363455 0.42609015 0.4212048 0.3664993 0.33724385 0.33430678 0.24547945 0.42408684 0.3165028 0.28518996 0.2825746 0.5967285 0.58931196 0.3938225 0.26663536 0.5753413 0.5948694 -0.017548978 0.56882256 0.5657228 0.20983458 0.36555913 0.41708547 0.44908756 0.46204787 0.1812438 -0.05597099 -0.048890434 0.56470895 0.2859733 0.1486773 0.4878815 0.49412465 0.41141272 0.3292532 0.2857824 0.5019238 0.4020539 0.35416788 0.3368132 0.32217038 0.27765894 0.74862266 0.80065966 0.7418734 0.49978852 0.49189556 0.31454617 0.36091483 0.36076528 0.3381204 0.76542425 0.8895246 0.89295924 0.8379457 0.46027833 0.43719864 0.3564351 0.33542377 0.49633968 0.9268091 0.95501626 0.95848626 0.9280529 0.28256133 0.13865371 0.9131577 0.92896795 0.37365043 0.37354028 0.33218357 0.23937887 0.3627239 0.38369286 0.36746448 0.38843206 0.3367954 0.26924986 0.75126475 0.6985725 0.6472682 0.34195632 0.39777488 0.25472075 0.28041324 0.2754987 0.6755611 0.59876835 0.6079501 0.42255217 0.24609041 0.25324154 0.44905037 0.41461414 0.40274233 0.15604094 0.58417183 0.57911706 0.54184735 0.24357995 0.381169 0.33069134 0.3350394 0.560001 0.15961689 0.24270308 0.527918 0.051277332 0.051129337 0.37200367 0.3843038 0.31570047 0.09473722 0.05236988 -0.21323232 0.49687916 0.15710141 0.101019636 0.41552556 0.43257198 0.4751726 0.05432839 0.08940506 0.42698556 0.53890455 0.58734417 0.5662819 0.5003358 0.40413994 0.5898255 0.68602324 0.6688211 0.50573164 0.32544357 0.2638565 0.6591785 0.80359864 0.80394983 0.47077394 -0.040446237 0.06053315 0.17809111 0.33061308 0.35996538 0.31672728 0.25493786 0.88866293 0.90486383 0.8639224 0.3557235 0.33450824 0.85365164 0.8561549 0.87050056 0.9001534 0.304001 0.35626912 0.33854443 0.31868732 0.8377506 0.71354 0.7324047 0.75827277 0.6868077 0.79304606 0.83904827 0.8206184 0.79723084 0.6567978 0.78651625 0.86309767 0.8335476 0.70944947 0.567466 0.59117377 0.5869992 0.67548555 0.73724544 0.7307745 0.49457234 0.55272746 0.5797155 0.5618535 0.45260435 0.4930791 0.5144221 0.5262779 0.4822435 0.48686963 0.47307348 0.4873687 0.48501676 0.4732017 0.48307616 0.3319239 0.3548591 0.33183068 0.8551751 0.8498661 0.8002138 0.75559616 0.20849562 0.31855586 0.29500532 0.30136597 0.352944 0.80898225 0.7945628 0.7275029 0.6848326 0.65541923 0.24414891 0.30283114 0.32925266 0.38632762 0.7386998 0.7218025 0.61989605 0.58608544 0.35935372 0.27056146 0.30997458 0.44123098 0.47582158 0.34662366 0.1752443 0.524246 0.44275853 0.41056418 0.2544756 0.27287334 -0.0013290867 0.54150134 0.47375035 0.10335835 0.2740031 0.25355983 -0.04346977 -0.051348444 0.35918653 0.0780148 0.0726512 0.0078871995 0.11208284 0.05604656 0.039980818 0.34301597 0.38431442 0.2661608 0.115690954 0.01351608 0.18018863 0.28608653 0.3667603 0.38888043 0.41514182 0.06303677 0.08705944 0.11284109 0.48240745 0.55314475 0.46816295 0.5724385 0.64816326 0.5028914 0.07949333 0.1355422 0.12638748 0.13569455 0.7496881 0.45261458 0.041256588 -0.025340702 0.2758565 0.22662933 0.17405641 0.14067078 0.8112854 0.84152263 0.367329 0.20957208 0.15467976 0.28361386 0.2900681 0.28468627 0.31256282 0.24673663 0.76929724 0.81231046 0.84178126 0.30812174 0.31237996 0.32876962 0.3737514 0.28007966 0.7892472 0.8193729 0.57521117 0.60280466 0.6095387 0.6298072 0.66921645 0.6908998 0.7008537 0.5513812 0.76579535 0.5793716 0.5998523 0.5881875 0.44408458 0.55427337 0.6557795 0.46561736 0.52751756 0.58487177 0.5981663 0.579785 0.45378226 0.5902647 0.5333693 0.4313509 0.45286763 0.55230355 0.45980507 0.4141701 0.44812766 0.558669 0.5430794 0.4430402 0.4825305 0.43300295 0.3028444 0.40862352 0.46125203 0.42629164 0.38730013 0.4806785 0.44577888 0.39777395 0.39417902 0.46567893 0.47743672 0.45833772 0.43708456 0.4673916 0.44240093 0.36837727 0.3430454 0.32683158 0.36351478 0.8916567 0.9411522 0.87811124 0.8489913 0.43689743 0.33286655 0.41658014 0.4569105 0.76958466 0.8292431 0.7330692 0.50321394 0.3576897 0.47810292 0.5305762 0.69637007 0.6620833 0.42999065 0.5732535 0.15999421 0.30743662 0.2575972 0.0043697357 0.34749898 0.20200023 0.225277 -0.0076571926 0.15357117 0.2920645 0.29199404 0.3017425 0.006101176 0.15685159 0.29690635 0.33080912 0.34969285 0.36179307 0.28171802 -0.015915185 0.28426242 0.23263144 0.26809484 0.27695933 0.22379166 -0.037339922 0.37050694 0.11898016 0.19884416 0.07207793 0.42220086 0.5469505 0.40188497 0.6059163 0.44767436 0.15451556 0.6906756 0.45103192 -0.03962733 0.13948062 0.11539629 0.15591943 0.21624196 0.6969016 0.740408 0.7439672 0.4128023 0.3637038 0.056667525 0.19311605 0.3130499 0.31676716 0.2987542 0.27894035 0.17765202 0.12706482 0.2966207 0.719228 0.73472166 0.750515 0.37709707 0.36693195 0.38558835 0.37411112 0.29270032 0.6056252 0.58899283 0.47743994 0.50728077 0.5497938 0.5508295 0.45404506 0.49965233 0.51950926 0.56383 0.4079023 0.4274195 0.5225185 0.569427 0.5720359 0.3648299 0.3917776 0.29170623 0.42414308 0.5257211 0.46750355 0.38196242 0.32871616 0.38511166 0.3946818 0.32356685 0.40611437 0.28501797 0.20630014 0.267562 0.36527944 0.58620465 0.5842391 0.5701463 0.16075352 0.23434052 0.5903482 0.5815388 0.56491196 0.5472952 0.16972601 0.24330857 0.26587883 0.570401 0.5558616 0.23348612 0.35570008 0.38536534 0.30429772 0.5637152 0.5744833 0.581283 0.35062915 0.4188299 0.44857937 0.41098112 0.58406186 0.5845382 0.41569406 0.4125957 0.39554375 0.77677584 0.64393497 0.59439754 0.5760703 0.37918532 0.41571683 0.43188074 0.4244659 0.72349775 0.42241627 0.45521736 0.5468124 0.88513184 0.9966719 1.0 0.8732313 0.6380242 0.4770115 0.5353631 0.7814791 0.7937083 0.67655313 0.61242324 0.5737132 0.65817297 0.58576226 0.5792334 0.6107951 0.51642764 0.60000795 0.45271215 0.49075928 0.16201943 0.1364252 0.47485787 0.5937462 0.48583162 0.43689317 0.1944924 0.17155112 0.15451676 0.14250255 0.34025759 0.11095026 -0.038721733 -0.10652687 0.323077 0.38017422 0.3835438 0.08427717 -0.02789481 0.22330931 0.23321769 0.17854418 -0.036722653 0.36579362 0.37187102 0.40779978 0.4050632 0.19699715 0.15915976 0.020059347 0.45210457 0.5178635 0.30468908 0.47950613 0.37135136 0.60877234 0.50240386 0.49534017 0.4229231 0.63552797 0.60081404 0.4223163 0.4090698 0.38651583 0.10600782 0.29817545 0.32907957 0.34282762 0.44008493 0.688171 0.66159856 0.64154875 0.37547335 0.3510544 0.37505388 0.45148697 0.48665285 0.4657123 0.538255 0.5526963 0.5606583 0.56983346 0.5515309 0.5671015 0.580464 0.57021445 0.5967179 0.6011901 0.592518 0.46346843 0.5785935 0.5928035 0.518409 0.42236218 0.45411795 0.3987252 0.4607779 0.52105594 0.5031603 0.41344696 0.44138062 0.3456306 0.4446231 0.38512534 0.5314526 0.5381832 0.53404015 0.3879899 0.32171357 0.36591682 0.30388778 0.4364497 0.5248051 0.4919839 0.3333902 0.3655416 0.41974732 0.28723866 0.30957556 0.27905852 0.5577331 0.54309475 0.5268265 0.23642679 0.22595099 0.102795504 0.047682807 0.016434863 0.28160524 0.36275178 0.59242654 0.59073573 0.5297893 0.47033024 0.15479568 0.11863989 0.09938908 0.0032314062 0.12852246 0.17421712 0.3456621 0.4142221 0.59180844 0.59212804 0.51268876 0.51293105 0.13490029 0.18146455 0.37672037 0.42663762 0.5811239 0.57070917 0.53466487 0.5228358 0.394261 0.46732527 0.52791333 0.54788107 0.58276606 0.17041756 0.26225898 0.26227 0.35362184 0.54210615 0.5086988 0.42398208 0.4422338 0.52781546 0.5829711 0.5713233 0.24204402 0.2741633 0.31050363 0.4879988 0.5432104 0.5824694 0.5782733 0.5538355 0.35104722 0.39169735 0.3908523 0.38789877 0.38337708 0.36593935 0.5273367 0.56138164 0.56372553 0.37423515 0.40379292 0.40844226 0.7261113 0.6339297 0.6116296 0.90597856 0.8451789 0.70000243 0.5806706 0.51315784 0.48759502 0.44295794 0.51527166 0.90073586 0.3009872 0.5482618 0.5811886 0.8163743 0.835484 0.5840186 0.59164906 0.72499394 0.775957 0.8984875 0.6453062 0.60462165 0.36466777 0.4532023 0.59390223 0.6409898 0.6581516 0.6099847 0.58898723 0.53346324 0.3994414 0.17409109 0.21605268 0.30256987 0.4196006 0.55206853 0.61711764 0.63316804 0.64112025 0.5624296 0.47353995 0.45427778 0.37607077 0.4177662 0.16700591 0.16099118 0.14767703 0.23782668 0.571305 0.60091496 0.61815643 0.633492 0.4901321 0.616695 0.36494634 0.14389062 0.5052373 0.5296258 0.6064687 0.3727779 0.4379174 0.47604775 0.17551444 0.40438116 0.047353934 0.06708964 0.15542898 0.2010186 0.24738988 0.23392233 0.16389954 -0.045572385 -0.006527297 0.37310147 0.43557727 0.43742645 0.13369323 0.43175882 0.043926418 0.4134075 0.16606998 0.38662603 0.41743886 0.3789933 0.32710952 0.47803625 0.4134964 0.4070246 0.41194037 0.38521412 0.3460405 0.072306626 0.523992 0.5808236 0.53238475 0.47759122 0.4129262 0.36921763 0.34880233 0.31953365 0.24541527 0.15237063 0.12305033 0.10954317 0.32554373 0.38883215 0.41481254 0.2811304 -0.0043624938 0.12042212 0.6030898 0.42288715 0.42365003 0.45161963 0.4548803 0.51967895 0.5206062 0.5346942 0.5720949 0.5896489 0.6507999 0.69661576 0.59595305 0.6197951 0.51528186 0.5256419 0.53728074 0.56564355 0.5725094 0.4482814 0.5578994 0.39035758 0.50233376 0.39040393 0.3995819 0.36429334 0.32983702 0.35868794 0.29744047 0.36233354 0.398149 0.2464611 0.2864056 0.4147138 0.5032463 0.5199796 0.5097865 0.22191776 -0.04164985 0.49738145 0.48690888 0.32354176 0.10367004 0.23473309 0.34894037 0.44820818 0.4366032 0.3718199 0.11263811 0.22654946 0.5474689 0.5133321 0.20361137 0.17416394 0.37843668 0.5260031 0.5627116 0.16435395 -0.03977327 0.15676905 0.025316352 -0.27065408 -0.030804448 -0.08924355 0.43476376 0.44025928 0.5203481 0.53990245 0.08856541 0.25357258 0.30164468 0.4058591 0.38805118 0.08249482 0.44492555 0.45740408 0.5131488 0.5498632 0.09181952 0.08434689 0.107170835 0.40670574 0.4168116 0.3547442 0.11681336 0.29826382 0.3069779 0.1680534 0.22091296 0.29286867 0.2644784 0.27938136 0.15463892 0.14804724 0.33089384 0.49085492 0.44525987 0.232605 0.36332542 0.28185415 0.5306338 0.26538417 0.20265822 0.30103236 0.47076103 0.48181462 0.49654 0.45279846 0.32707632 0.35282496 0.3928627 0.40891343 0.37733704 0.87304354 0.7969056 0.6621785 0.5165426 0.43027884 0.19731124 0.360673 0.4057286 0.940559 0.917923 0.6589724 0.61051714 0.4878255 0.51662326 0.49171305 0.4840932 0.5428962 0.89118904 0.9243171 0.4984928 0.5946417 0.59966993 0.4592603 0.73036146 0.8397293 0.826418 0.6107141 0.6094703 0.6331985 0.23489633 0.24012247 0.33268583 0.6657903 0.772979 0.614245 0.5296602 0.57074004 0.2946849 0.25294042 0.64621353 0.7097954 0.41440263 0.362026 0.34550184 0.30654833 0.62888885 0.46937215 0.3548156 0.3401211 0.3008081 0.58747053 0.60991466 0.17862909 0.26577538 0.33674043 0.45006526 0.5219058 0.5673331 0.015378386 0.35698593 0.40164477 0.48022452 0.08993962 0.026345171 0.17944914 0.041805476 0.26680645 0.055683587 -0.02684424 -0.020793594 0.32007742 0.50379175 0.07578859 -0.0014858916 0.21138874 0.23995107 0.207076 0.18394206 0.016424477 0.009786375 0.39971206 0.48688063 0.46495843 0.45554042 -0.0141765475 0.34737766 0.29983765 0.3545894 0.29098293 0.36905026 0.2464861 0.2919495 0.33004045 0.32289395 0.14025979 0.30559528 0.14234135 0.56311715 0.25606206 0.17363164 0.22705783 0.22993955 0.40080452 0.47717905 0.41099083 0.6476093 0.45280766 0.49493623 0.5152464 0.6683696 0.5643865 0.56727505 0.6674428 0.67316526 0.60820997 0.6523851 0.70359164 0.43623525 0.43013877 0.42211008 0.4567145 0.51113343 0.49040502 0.3699138 0.42470998 0.4971002 0.4886133 0.28956732 0.38894784 0.460466 0.35323793 0.36576945 0.32928726 0.30626613 0.11376622 0.16968472 0.19765976 0.281632 0.26731768 -0.25566125 0.40178514 0.47237816 0.24398738 0.17494269 0.17191122 0.39684892 0.35204333 0.48868293 0.45160174 0.05753973 0.14261994 0.5106152 0.5060446 0.30208808 0.3467586 0.4999276 0.3969345 0.47773942 0.46440145 -0.10886164 -0.1593693 -0.057056285 0.2627254 0.44215715 0.42536905 -0.107274435 0.36635795 0.29684132 0.023758546 0.25215378 0.40929952 0.36837542 0.32598108 0.22432506 0.16334446 0.12879235 0.193333 0.22695176 0.4959398 0.54346085 0.36295617 0.25281453 0.24215965 0.17806005 0.28951436 0.30793437 0.3734794 0.5734507 0.59496653 0.54857117 0.32753298 0.21390527 0.2325703 0.26319906 0.29373947 0.34888127 0.933045 0.90873516 0.8257946 0.70662713 0.5217195 0.5034796 0.48801056 0.5052445 0.55940723 0.6082926 0.4656171 0.2908047 0.235553 0.8828764 0.9144398 0.6050536 0.5260675 0.5118598 0.5263052 0.56960726 0.6227845 0.6273228 0.40775174 0.50364256 0.6406 0.8725785 0.8413696 0.44230217 0.48104894 0.6286409 0.28802133 0.23953462 0.2219997 0.26230907 0.59638214 0.5641883 0.7797039 0.6335194 0.62151074 0.31426406 0.5989102 0.66679883 0.39903766 0.6677878 0.34221148 0.31641546 0.5841199 0.53630185 0.4948755 0.10820934 0.17052208 0.60048866 0.345527 0.37659577 0.28693435 0.5670969 0.54133743 0.22216187 -0.078829914 0.17846075 0.29117405 0.47478765 0.5288658 0.36759847 0.005754143 -0.0037568286 -0.022307064 0.11993722 0.1848326 0.17700346 0.17667024 0.28618145 0.34571826 0.44306955 0.51671803 0.4715462 0.33308977 -0.011127986 0.0632798 0.090025164 0.51651317 0.51757336 0.5318992 0.2166778 0.1447117 0.023603026 0.051505003 0.14448527 0.5040892 0.48865104 0.2982119 0.35214865 0.16802558 0.08711675 0.079477996 0.10111323 0.22060579 0.29097182 -0.16314386 -0.024754837 0.12172708 0.24372923 0.74251246 0.32348782 0.26712963 0.4952899 0.26700535 0.28690597 0.48407316 0.57861304 0.58793473 0.40524295 0.63921916 0.5617847 0.5748546 0.4753821 0.52445894 0.6852277 0.5708866 0.5770707 0.6849815 0.6899072 0.6173419 0.6632648 0.6916672 0.6680318 0.34012508 0.32615015 0.2903654 0.36031583 0.3587405 0.3354742 0.3238513 0.3140964 0.36189616 0.4389657 0.4501711 0.30076116 0.39107743 0.1772947 0.22937645 0.27725047 0.2230511 0.18319158 0.17108849 0.21101649 -0.081677526 0.19676942 0.24730007 0.2663897 0.34189948 0.28202873 0.19984767 -0.25709742 -0.3787831 0.09571404 0.24561858 0.26170447 0.45434898 0.4097488 0.11726863 0.49715936 -0.011782681 0.5248637 0.07793784 0.20913851 0.49304086 0.31810066 0.44790497 0.40851027 -0.118652046 0.27020827 0.20931013 -0.18279241 0.23710035 0.30518913 0.1612279 -0.15790161 0.4171468 0.08488858 0.17765586 0.5117921 0.536554 0.28831294 0.13126989 0.24116093 0.33229384 0.40931654 0.37154615 0.60565233 0.63582253 0.2819335 0.28238064 0.29251358 0.21071741 0.30309898 0.258871 0.22483584 0.1513323 0.43049464 0.47765076 0.47272485 0.8990265 0.83574647 0.5213469 0.64317584 0.2836606 0.1603819 0.1603931 0.23157337 0.26645947 0.8944472 0.8962854 0.8159279 0.7254509 0.49678695 0.46444345 0.48704258 0.5413844 0.58215827 0.62022805 0.5424682 0.53381854 0.4984247 0.50576353 0.8329563 0.8252418 0.50585514 0.56073666 0.6033211 0.6492231 0.29780072 0.28716475 0.4623005 0.7849809 0.731261 0.6556674 0.4542697 0.63067806 0.66335034 0.33780593 0.44084203 0.13347198 0.35660636 0.361286 0.4668073 0.47074085 0.03926879 0.23662394 0.43603927 0.4619695 -0.010923147 -0.10561597 0.30975246 0.36330637 0.5268736 0.48855525 0.4182428 0.12997125 0.13244078 0.13660763 0.0046919137 0.15372066 0.18055283 0.17844777 0.2178976 0.25297785 0.51890796 0.5266669 0.6051948 0.4773775 0.47156674 0.13603415 0.25047874 0.2401427 0.08335107 0.041616805 0.10880359 0.51854354 0.51716226 0.5219825 0.094456196 0.170952 0.1613473 0.11843554 0.6111902 0.512067 0.5885494 0.68131673 0.090827286 0.52268624 0.65464854 0.65523255 0.78984797 0.42424762 0.38484627 0.40169927 0.4658756 0.38480103 0.550964 0.5864669 0.6354172 0.6356938 0.6274584 0.457039 0.4703834 0.62903976 0.5601721 0.68591595 0.5475577 0.61010796 0.6818707 0.70645773 0.69222695 0.69421005 0.67496586 0.6841366 0.33267546 0.3504258 0.34159184 0.2333183 0.32330412 0.33730024 0.32060903 0.24167764 0.39110982 0.35875386 0.3375499 0.35257068 0.35498044 0.20983756 0.4098693 0.38850632 0.3868231 0.38397652 0.41714257 0.30525416 0.4925058 0.27036807 0.29126707 0.34199318 0.3254838 0.38880122 0.37526825 0.4828291 0.46149844 0.15974279 0.27740836 0.35791028 0.38194966 0.31774917 0.40693933 0.38426393 0.3589609 0.2000724 0.13159128 0.09425379 0.10023257 0.100368366 0.18817946 0.10246344 0.28284103 0.2868367 0.32807967 0.2857519 0.29005766 0.25127345 0.13818488 -0.091571584 -0.04258403 -0.38064528 -0.19750968 0.26736507 0.2629242 0.3345651 0.07852584 -0.35653713 -0.4396782 0.26298517 0.2172668 0.43882334 0.395733 0.16871491 0.14878488 0.5018172 -0.00883461 0.00409884 0.52468467 0.4840013 0.15395416 0.29763442 0.07530899 0.11985957 0.21956542 0.1326709 0.12996817 0.40043205 0.24836111 0.21147747 0.50885844 0.5243881 0.015398987 0.33947554 0.40321383 0.25835747 0.6136055 0.624243 0.23748581 0.2078386 0.21114755 0.14510128 0.118408516 0.10023725 0.33113983 0.43029493 0.4979725 0.47837436 0.43411058 0.6348413 0.5247501 0.14316487 0.4627148 0.49863684 0.49528164 0.4685072 -0.20384866 0.32763016 0.18648618 0.2517926 -0.06913756 0.33047342 0.34578097 0.54683447 0.38462162 0.3749758 0.3618232 0.6466908 0.57791275 0.38222322 0.30564612 0.63753873 0.32026455 0.2239967 0.55793035 0.67907596 0.26082677 0.17394042 0.23251133 0.30265278 0.553826 0.6016395 0.6799978 0.65647906 0.5836369 -0.010059118 -0.013239831 0.09630598 0.17358771 0.16301411 0.23037954 0.62762904 0.6478438 0.66294074 0.675087 0.65043426 0.6139301 0.56428206 0.5332957 0.5357696 0.57524025 0.55944514 0.64578605 0.66317207 0.5980429 0.59808195 0.6173846 0.6152292 0.5891317 0.5629656 0.57181877 0.6659323 0.6574714 0.41779774 0.53219557 0.7429955 0.56503683 0.48379183 0.5073344 0.6548008 0.65325 0.65834165 0.5108786 0.51841265 0.62038696 0.61121976 0.64468277 0.64250046 0.5143167 0.6815903 0.67867565 0.6437985 0.7234673 0.7132498 0.6262889 0.71063244 0.75127554 0.73225605 0.32291198 0.32167467 0.34834218 0.34166902 0.3065833 0.27106476 0.3562484 0.25446737 0.3481008 0.31541362 0.29295528 0.32100996 0.25368622 0.25071505 0.15493944 0.3724207 0.37143707 0.35647574 0.32652652 0.33564633 0.35507032 0.34863797 0.3128565 0.17396004 0.033014905 0.08060137 0.39432424 0.41106224 0.3589997 0.403651 0.34831405 0.37603995 0.3497755 0.28432575 -0.04280547 0.30707294 0.39230406 0.43154913 0.45028523 0.4618642 0.30625737 0.38070837 0.23478806 0.2973032 0.34547436 0.20232633 0.2761683 0.26954132 0.46374142 0.46321088 0.119070075 0.0016659871 0.20141722 0.122408204 -0.1754053 0.03643056 0.4143133 0.091177024 0.017474294 0.034109876 -0.01895596 -0.33678043 -0.007828975 0.106311604 0.34028643 0.27656713 0.23305765 0.04494907 -0.42210212 -0.39026967 0.24712613 0.22998151 0.3539772 0.32994348 -0.06698329 -0.064603016 0.2183645 0.391801 -0.3360035 0.14371759 0.2905782 0.44075087 0.09441645 0.31391415 0.37221813 0.47574374 0.2258842 0.31701183 0.3583785 0.44585758 0.37912074 0.24798344 0.2925745 0.1848628 0.13593018 0.1328952 0.020881258 0.14576231 0.15973957 0.3413139 0.16615668 0.29184404 0.24888092 0.5617372 0.03329811 0.015732564 0.41247153 -0.045582697 -0.08701134 -0.1580463 -0.024184301 -0.0122549385 0.38369846 0.46234703 0.49413598 0.47511604 0.41041067 0.122733615 0.20999055 -0.17149173 -0.14152458 0.48530805 -0.08584561 0.047826506 0.36298972 0.117684826 0.66001683 0.6677315 0.40655765 0.13968718 0.69839907 0.7288612 0.720