# vtk DataFile Version 2.0
Really cool data
ASCII
DATASET POLYDATA
POINTS 10106 float
-28.634586 -9.388832 61.66055
-28.654161 -9.365442 62.248955
-28.582802 -8.5125265 61.405537
-28.636065 -8.653696 62.20221
-27.823944 -10.764652 61.48761
-27.770027 -10.792287 62.25896
-27.748629 -9.847687 60.196194
-28.063334 -10.210638 60.79474
-28.339808 -10.174183 61.618015
-28.317873 -10.07036 62.34436
-28.120195 -10.03488 62.821743
-27.961845 -9.701617 60.291435
-28.263273 -9.55339 60.708767
-28.498585 -9.219469 62.66075
-28.17817 -9.317317 63.055244
-27.91869 -8.371348 59.838818
-28.384949 -8.3074045 60.826527
-28.464848 -8.460414 62.362614
-28.056776 -8.723456 63.077404
-27.92113 -7.4618316 59.980877
-28.210003 -7.6965694 60.561153
-28.308903 -7.8530645 61.588646
-28.171476 -7.9883347 62.353565
-27.869894 -8.025351 62.78726
-27.866491 -7.062076 60.447163
-27.852434 -7.13043 61.653336
-27.839748 -7.296949 61.973274
-27.368683 -10.790318 60.739902
-27.277672 -11.120541 61.694424
-27.390898 -11.089828 62.43486
-27.101595 -11.043339 63.3282
-26.960081 -10.429358 60.050037
-27.562351 -10.461888 60.46432
-27.31965 -10.644583 63.42529
-26.98368 -10.409216 63.874485
-26.771048 -8.949383 58.971493
-27.105503 -9.473538 59.541855
-27.176365 -9.506928 63.86724
-27.098946 -8.474892 59.14918
-27.654684 -8.459616 59.46317
-27.611227 -8.671552 63.389668
-27.136692 -8.759297 63.78473
-26.971521 -7.6903615 59.06004
-27.617075 -7.2962794 59.613487
-27.639997 -7.423679 62.473972
-27.20467 -7.8517885 63.160633
-27.38578 -6.866383 59.880608
-27.48629 -6.683417 60.537724
-27.438799 -6.6851654 61.393356
-27.25714 -6.9705048 62.14085
-27.058493 -6.4142666 60.687138
-25.989483 -11.555478 61.862015
-26.311583 -11.725989 62.686874
-26.285788 -11.658541 63.31342
-25.96697 -11.109155 60.321426
-26.693468 -11.274535 61.463886
-26.57941 -11.519754 63.393353
-26.29375 -11.183125 63.9105
-25.738909 -9.955299 58.711502
-26.663002 -10.347303 59.886627
-26.314976 -10.395419 64.214905
-26.239862 -9.177333 58.626747
-26.365404 -9.486113 64.29916
-26.100437 -8.278159 58.388844
-26.29091 -8.669725 64.14178
-25.887495 -7.895653 58.496452
-26.444485 -7.6569715 63.402786
-26.32808 -7.9730034 63.730984
-26.316383 -6.769145 59.041092
-26.658375 -6.6653266 62.233948
-26.388994 -7.1697206 62.902294
-26.18195 -6.1220136 59.966633
-26.430107 -6.2269306 60.3031
-26.47797 -6.271329 61.416275
-26.324394 -6.389061 61.942696
-25.594717 -11.828249 62.887615
-25.638348 -11.717821 63.448013
-25.454556 -10.85713 59.421314
-25.374983 -11.240478 60.571243
-25.483862 -11.513376 63.66482
-25.608086 -11.237701 63.968624
-25.038654 -10.51503 58.6362
-25.663492 -10.4096 64.30993
-25.239065 -9.534903 58.171715
-25.579166 -9.49791 64.416306
-25.218939 -8.821792 57.812916
-25.517736 -8.68092 64.31905
-25.235811 -7.7488537 57.9868
-25.489424 -7.674731 63.59972
-25.489542 -8.01065 63.9552
-25.349716 -6.736796 58.298687
-25.992905 -6.712583 62.54617
-25.741566 -7.3575544 63.23923
-25.2901 -5.997477 58.806477
-25.318468 -5.7520695 59.657986
-24.948803 -5.893601 60.761597
-25.091566 -6.3750887 61.56893
-25.986359 -6.390434 62.046783
-23.803137 -12.356668 60.543163
-24.15169 -11.874621 61.440285
-24.466356 -11.762552 62.52199
-24.753141 -11.588008 63.029922
-24.336761 -11.34584 58.714607
-25.048895 -11.126699 63.86484
-23.795353 -9.99308 56.475494
-24.412725 -10.724136 58.195763
-24.505917 -10.736452 63.57601
-24.955341 -10.338063 64.12712
-24.90365 -9.219914 64.36053
-23.870934 -8.611127 56.04951
-24.791885 -8.56964 64.19049
-24.064596 -7.7847176 56.85978
-24.984205 -7.7099633 63.61798
-24.93155 -8.092685 63.909504
-23.675505 -6.4036407 57.124924
-25.015533 -7.052916 62.53582
-24.496159 -5.5938225 59.305244
-24.484272 -5.6828833 60.583054
-24.295034 -5.413838 60.0987
-23.150175 -12.719889 59.55219
-23.197298 -12.945958 60.17531
-22.914162 -13.098134 61.153812
-23.448605 -12.628383 60.69978
-22.938065 -12.382576 62.021736
-22.983416 -10.731926 56.221745
-23.836855 -11.409713 62.961864
-23.118322 -10.074534 55.6603
-23.349157 -10.361116 63.379555
-23.127575 -9.28423 55.200466
-23.261654 -9.548417 55.45733
-24.114061 -9.372525 63.855225
-22.988358 -8.642543 55.11176
-23.40325 -8.468565 55.417248
-23.756409 -8.760116 63.482
-22.934788 -7.8876424 55.29365
-23.224037 -7.451731 55.679684
-23.167727 -6.480278 55.955166
-23.469494 -7.096413 56.34166
-23.304075 -6.8014035 61.98731
-23.077583 -4.297855 55.68409
-23.02122 -4.128832 57.20994
-22.91291 -5.325393 58.43852
-23.729403 -5.294883 59.616756
-22.706198 -3.5163732 54.96719
-23.260185 -3.4514818 55.68917
-23.406668 -3.6070352 56.310802
-23.141079 -3.2318242 57.058376
-22.77338 -3.4826138 57.71203
-22.832268 -2.5652912 55.070057
-23.285755 -2.498178 55.73906
-23.342854 -2.323692 56.424355
-23.110014 -2.2877152 57.078907
-22.747906 -1.5873145 55.245464
-23.077394 -1.5007269 55.81257
-23.22921 -1.5187175 56.360508
-23.067081 -1.37094 57.08439
-22.944113 -1.016764 55.90082
-22.953793 -0.8804849 56.48221
-22.877474 -1.0063522 57.106663
-21.75061 -15.157118 60.700886
-21.798431 -15.042494 61.081417
-21.897867 -14.433088 59.92043
-22.273212 -14.17782 60.697662
-21.987827 -14.559646 61.25171
-21.778372 -14.170842 61.949566
-21.955679 -12.868936 58.52274
-22.380669 -13.491597 59.38062
-22.499472 -13.371656 61.34339
-22.363434 -12.794177 62.075737
-21.949408 -11.7286215 56.45575
-22.739655 -11.72183 57.75462
-22.081308 -11.829266 62.926437
-22.013678 -11.291321 56.003937
-22.459677 -11.244026 56.597977
-22.369062 -10.010353 55.094147
-21.857115 -9.158453 54.413258
-22.367788 -9.391498 54.80734
-22.660719 -9.752225 63.07205
-22.024105 -8.240064 54.76765
-21.9079 -7.920651 54.662273
-22.462463 -7.2251835 62.04237
-21.762966 -7.6163473 63.010643
-22.12689 -6.677211 62.426376
-21.84447 -5.436932 62.5209
-21.651875 -5.5103216 62.939613
-21.719135 -4.328716 54.382404
-22.3579 -4.148712 54.829414
-21.691933 -5.1252813 62.241768
-21.884695 -3.406251 54.24089
-22.33749 -3.49772 54.588753
-21.865208 -3.5775733 58.239014
-21.963488 -2.8170633 54.283234
-22.486446 -2.4776628 54.84298
-22.534874 -2.7532675 57.55602
-22.015314 -2.705125 58.09072
-22.20419 -1.7672062 54.808746
-22.70332 -1.865357 57.529537
-22.301865 -1.9103426 57.667458
-22.236355 -0.9967853 55.17608
-22.36379 -0.64207447 55.69225
-22.637896 -0.569904 56.509254
-22.48973 -0.7340232 57.165054
-22.057013 -0.36561882 55.929462
-22.264208 -0.39115906 56.468277
-22.097761 -0.40166208 56.984978
-20.6885 -16.694405 59.955353
-20.703442 -16.711308 60.527462
-20.87762 -15.858319 58.953342
-20.970284 -16.272804 59.694115
-21.08577 -16.203758 60.478767
-20.938961 -16.158037 61.18706
-20.888847 -15.797107 61.83384
-21.073715 -15.19556 58.867123
-21.340912 -15.526863 59.63388
-21.33974 -15.551233 61.324673
-21.456827 -15.014398 61.858326
-21.326416 -14.567216 58.938847
-21.034683 -14.550503 62.459064
-21.251053 -13.218952 58.087475
-21.100006 -13.430531 62.47663
-21.055735 -11.815769 55.486317
-21.265846 -12.107196 56.79548
-20.908293 -12.8615 62.758232
-20.621984 -11.454461 53.719948
-20.74488 -11.067089 54.277752
-21.484423 -11.39448 55.884586
-20.85977 -10.561962 53.726864
-21.294842 -10.758517 54.76541
-22.033543 -10.795244 63.23159
-20.77044 -9.699864 53.541866
-21.698977 -9.751256 54.459038
-21.145964 -9.60187 63.203976
-20.887676 -8.553836 53.88468
-21.17687 -7.792285 54.26033
-20.82297 -6.3748336 54.399796
-21.491829 -6.321117 54.800148
-21.149523 -5.172907 54.04543
-21.36759 -5.346459 63.064552
-21.368917 -4.588242 54.13745
-21.452526 -4.186981 59.524952
-21.377903 -4.2293773 60.061073
-21.45722 -4.7141933 61.73296
-21.236528 -4.73936 62.465977
-21.042152 -4.9679027 63.072952
-21.325912 -3.366395 53.867683
-20.798857 -4.2040434 61.424255
-21.296371 -2.654104 53.983524
-21.605778 -2.6904454 58.38293
-21.210966 -2.0070827 54.244553
-21.380259 -1.4793905 54.638184
-21.487413 -0.839805 55.056725
-21.493824 -0.47910517 55.42753
-21.841948 -0.8247511 57.423893
-21.486975 -0.29572988 55.819313
-21.554792 -0.22358787 56.425583
-20.320238 -16.904463 59.7913
-20.276136 -16.963142 60.52557
-20.155313 -16.895971 61.072514
-20.389965 -16.2379 58.79675
-20.584599 -16.529526 59.304153
-20.281664 -16.37999 61.589924
-20.2251 -15.879894 62.25394
-20.325394 -15.161425 58.248486
-20.275885 -15.8294735 58.45388
-20.538296 -15.401491 62.52769
-20.093166 -15.092765 63.107273
-20.046562 -14.302763 57.88887
-20.485596 -14.556594 62.990097
-19.755882 -12.837461 53.56219
-20.196795 -12.867628 56.624847
-20.026262 -12.210247 52.906254
-20.264963 -12.222112 53.48892
-20.58481 -12.204549 54.955257
-20.238922 -12.668022 62.8324
-19.623281 -12.194934 64.026764
-20.085163 -11.536594 52.675518
-20.008972 -10.672009 52.677113
-20.306507 -10.53103 63.30626
-19.746754 -10.291842 63.719612
-19.975975 -9.745512 52.938263
-19.86144 -9.390935 63.968372
-19.906048 -8.976846 53.23324
-20.37915 -8.250152 53.60295
-19.972433 -8.207241 64.83846
-20.39066 -7.7995663 53.954132
-20.403605 -6.6319437 54.10881
-20.393755 -6.6310463 64.21077
-20.177298 -5.295073 53.83304
-20.039959 -5.289564 64.15253
-20.51747 -4.3377724 53.68293
-20.375683 -3.269169 53.483044
-20.54093 -3.2977984 53.586292
-20.413733 -2.6149914 53.76067
-20.31961 -2.8211827 60.246353
-20.55924 -2.074635 54.140373
-20.635992 -1.5236263 54.561996
-20.461678 -1.9193558 58.307697
-19.807043 -2.1106005 60.01384
-20.919077 -0.90542 55.03572
-20.600008 -0.65358186 55.449097
-20.942707 -0.3092031 55.87797
-20.963604 -0.22753009 56.155094
-19.560366 -17.077883 59.8238
-19.547024 -17.176922 60.429153
-19.681473 -16.922842 61.26645
-19.807207 -16.562336 58.825085
-19.687874 -16.000446 62.339382
-19.741104 -15.713488 62.77388
-19.638317 -15.323184 63.11129
-18.610903 -14.261149 51.8512
-18.589659 -14.281774 52.02509
-19.435501 -13.815045 57.50393
-19.624353 -14.732211 63.424038
-18.796398 -12.900811 51.869606
-19.215069 -13.034623 52.800285
-19.22486 -13.109173 53.746357
-19.272938 -13.070576 54.106323
-19.181154 -12.805554 64.28454
-19.127821 -12.390512 52.06454
-19.276117 -12.772523 52.32859
[...]
POINT_DATA 10106
SCALARS features_00 float 1
LOOKUP_TABLE default
0.75801027 0.74017143 0.7170293 0.6956178 0.64656985 0.705493 0.5175381 0.61354166 0.7244874 0.74903286 0.74695367 0.56227046 0.6739686 0.720299 0.7132821 0.6199386 0.719695 0.67593527 0.6616874 0.6598384 0.6867157 0.66504836 0.6395888 0.6106536 0.65970874 0.62562466 0.6119667 0.5183364 0.60938007 0.69467235 0.7443917 0.4207322 0.5145947 0.7562723 0.7730815 0.39027244 0.41964042 0.72276175 0.46648008 0.5490532 0.63747907 0.6310035 0.5158142 0.6271322 0.57702804 0.55662155 0.6274352 0.6283965 0.6029798 0.5539226 0.5869743 0.51402736 0.6316751 0.67536783 0.3578649 0.5296254 0.7113689 0.71788836 0.26699972 0.38093922 0.76090884 0.32565916 0.71677303 0.35454684 0.6028737 0.37112573 0.4966144 0.5219826 0.55140036 0.49525726 0.46748936 0.51756626 0.5334221 0.50915986 0.47222903 0.55931467 0.60773057 0.2536039 0.29228684 0.6086218 0.642326 0.21146305 0.7055603 0.24041033 0.6825552 0.2451656 0.5893295 0.27348042 0.46688384 0.51617765 0.40207922 0.42521 0.4375349 0.46267998 0.42386562 0.39650875 0.3636772 0.43197915 0.16967559 0.18974668 0.41488963 0.5100498 0.13683584 0.57758 0.2790702 0.1497615 0.5128112 0.60778046 0.606663 0.29160678 0.5597378 0.16163406 0.45105892 0.5135896 0.11323327 0.32978535 0.3244655 0.34288782 0.32802665 0.17146714 0.1820149 0.18598753 0.16650124 0.11877073 0.21346644 0.36392456 0.2931362 0.31481454 0.31103396 0.31980824 0.51103914 0.30086178 0.3034079 0.4414971 0.2785795 0.24963343 0.15164305 0.18688989 -0.013561904 0.48195362 0.39085037 -0.1393763 0.23213102 0.4893681 0.60397494 0.65775234 0.5538498 0.34132743 0.59296143 0.7067431 0.75248563 0.6448964 0.7380437 0.8056035 0.819358 0.77449787 0.81404316 0.8210827 0.79544187 0.43783075 0.41071254 0.35218382 0.2868628 0.34185183 0.31036857 0.04920863 0.19550554 0.21282005 0.1621243 0.03437948 0.004137122 0.07328243 0.11127001 0.1076461 0.2613492 0.2271508 0.26898745 0.09837237 0.21340932 0.16320334 0.013358593 0.06072685 0.057601504 0.11689172 0.11617419 0.38681948 0.41136068 0.11911145 0.4616683 0.46518797 0.14687772 0.5049334 0.5692464 0.4353071 0.3173117 0.6438188 0.6020149 0.5275017 0.733656 0.77304536 0.8069546 0.7849681 0.76007915 0.7862686 0.76334405 0.6191573 0.6114907 0.50362 0.568501 0.5595405 0.5362123 0.48617762 0.41785502 0.50130844 0.4706344 0.41103703 0.32794356 0.39545992 0.029838752 0.22336814 0.07706492 -0.026719294 0.048891917 0.33548906 0.25458318 0.08513502 0.31188843 0.18022658 -0.07405703 0.25684375 0.22913472 -0.19918156 0.14664412 0.05660687 0.066030845 0.080490895 0.27590644 0.13917331 0.3613473 -0.06369018 -0.009984493 0.13731012 0.15133093 0.16169375 0.471341 0.13853425 0.5230038 0.21910962 0.5684845 0.6180455 0.6675718 0.6889862 0.7057735 0.70400345 0.7159005 0.65356684 0.6541263 0.6358141 0.5383246 0.59371185 0.56855404 0.50922155 0.35504526 0.45691115 0.4597967 0.42644235 0.1697371 0.3729387 0.2963423 -0.09541996 0.3642778 0.34857818 0.14237979 0.012844525 0.20269628 0.39024046 0.35458025 -0.09444321 -0.0011563916 0.2445086 -0.04820147 0.18267302 0.11443935 0.08743075 0.036354847 0.015371159 0.22397584 0.27199155 0.24713571 0.41077703 0.5092795 0.50202876 0.5382727 0.016651329 0.5549394 0.57355845 0.223173 0.13630854 0.6138091 0.57494056 0.6261488 0.62827635 0.71518594 0.7119417 0.6704632 0.6203952 0.5383486 0.4957387 0.45332783 0.35930312 0.34515834 -0.018843263 0.3645162 0.2771657 0.2706725 0.19562024 0.15570533 0.32760632 0.32297042 0.29900804 0.32145405 0.3184766 0.3539642 0.3715223 0.2160284 0.25034863 0.28642896 0.26510468 0.14287737 0.17261422 0.20071113 0.17295319 0.032495104 0.0511255 0.13359608 0.14316794 0.13079372 0.049528636 0.18876407 0.22435361 0.092476726 0.2806158 0.28800926 0.16966152 0.37820956 0.38640863 0.41553432 0.34568265 0.4149848 0.4233123 0.515141 -0.01394096 0.526792 0.48466966 0.09427559 -0.00515227 0.4875 0.30798712 0.44720453 0.36037418 0.16307385 0.37705153 0.4224394 0.42337388 0.4044922 0.4520677 0.47606647 0.4638933 0.46634626 0.48071396 0.7268069 0.7002858 0.51451755 0.47500354 0.3807099 0.61292166 0.58700705 0.5463424 0.5105235 0.48936403 0.35300115 0.12723503 0.3677154 0.37787217 0.4625584 0.46841377 0.44148445 0.14886418 -0.045196377 -0.28581774 0.33424032 0.39466846 0.37360978 0.3969146 0.40756452 0.2959377 0.3064495 0.36439365 0.34029263 0.28095162 0.30351192 0.27934396 0.21153003 0.19165562 0.105230354 0.14225343 0.06263806 0.06763164 0.13731621 0.34404677 0.356784 0.40248725 0.38498116 0.42338067 0.428715 0.43331233 -0.1480924 0.30343395 0.41128466 0.43400756 0.45149583 0.23415454 0.14777984 0.1838378 0.09230135 0.44000587 0.3684082 0.38736856 0.41427207 0.4870992 0.4693867 0.42681143 0.34764308 0.45405957 0.48976058 0.4928018 0.43183625 0.45057184 0.4975075 0.4891801 0.40619195 0.43423438 0.4671904 0.40817112 0.30068356 0.33097965 0.36926743 0.3282894 0.24597038 0.24842067 0.19468942 0.20595706 0.31876272 0.30324763 0.19413 0.5113357 0.5166054 0.4892888 0.3086307 0.068527706 0.085667774 0.2785031 0.17995416 0.105652705 0.38921636 0.44826227 0.3362378 0.5035903 0.5213373 0.04263068 0.101195484 0.21529503 0.10884446 0.11048898 0.4722083 -0.3379787 -0.3036225 -0.008399431 0.2355882 0.38812396 0.38749284 0.30629185 0.2947664 0.3162519 0.2521829 0.21625632 0.19195333 0.1617204 0.107018985 0.14716439 0.037801526 -0.1735655 -0.19776842 0.17884374 -0.087529734 0.27329 -0.027587548 0.36872604 0.43569815 0.41942555 0.09747097 0.060202748 0.28124848 0.34778082 0.43298528 0.27186596 -0.17878565 -0.17607546 0.14476235 0.26254568 0.21068603 0.1642981 0.26064795 0.46443546 0.40454534 0.29287434 0.34349653 0.46296462 0.48017427 0.48331136 0.39549822 0.48153824 0.51375794 0.52868736 0.39166045 0.41714197 0.46159834 0.5031811 0.48809803 0.46636522 0.38820657 0.41337597 0.42093784 0.35373268 0.407197 0.10925351 0.107948914 -0.05837118 0.48045427 0.45605722 -0.10949229 -0.3533775 0.44933087 -0.09714589 0.40908614 0.429767 -0.34308565 -0.26997328 -0.059985578 0.10041317 0.38398972 0.3650146 0.22500238 0.338893 0.31768543 0.1876609 0.23894581 0.16626409 0.18426964 0.243413 0.15361713 0.19395256 0.13971639 -0.06097394 0.16203424 0.17436461 -0.18806455 0.15434664 0.11012688 -0.19554421 0.048300125 -0.110496774 0.19936359 -0.05631289 0.28511477 -0.04897061 -0.17515133 0.34072614 -0.006747421 0.3672642 0.35484046 -0.106897995 -0.043092318 0.041568834 0.27796528 0.0077827014 -0.08858551 0.23516308 0.27299947 0.36655682 0.3430757 0.32877654 0.4347968 0.39863914 0.3744759 0.3593059 0.39896268 0.7285048 0.7555238 0.7127431 0.7043267 0.44455665 0.28913364 0.31578308 0.48565325 0.4369542 0.37895685 0.43021315 0.28975034 0.30426097 0.19325432 0.11128913 -0.08424418 0.30731833 0.16763677 0.0070543364 0.20475355 0.32004768 0.40895963 0.36910588 -0.12942815 0.08864698 0.1883542 0.34658724 0.3745272 -0.36737773 0.34513038 -0.33162075 0.30907845 -0.03338422 0.19592483 0.2721203 0.20168634 0.2529252 0.27682307 0.26940328 0.27465704 0.24701087 0.26415363 0.25537902 0.22027288 0.2030837 0.08783337 -0.06588407 0.16964138 -0.2646925 0.105742276 -0.17460129 -0.009630559 -0.104077846 0.054296732 0.14267659 -0.0051473826 0.18162535 0.16531657 0.43888956 0.4045235 0.28334936 0.21533823 0.058680013 0.15087622 0.4801643 0.47735932 0.22867887 0.15412354 0.24715862 0.19892496 0.48710018 0.32846403 0.26743877 0.21633464 -0.14615607 0.08289319 0.17801902 0.27211463 0.021314481 0.14474276 0.25899455 0.29439184 0.3809128 0.26513514 0.43058228 0.416036 0.30077204 0.44812804 0.44191104 0.4048267 0.40795025 0.31551576 0.80159354 0.8533428 0.8955171 0.72330356 0.7449072 0.79029334 0.8509033 0.63424855 0.6549847 0.6735846 0.7374644 0.3410445 0.55268276 0.5691837 0.20434572 0.20585385 0.32297885 0.12458903 0.2656269 0.40351057 0.3133576 0.05484638 0.31521523 0.39467347 0.3633641 0.3040759 0.16782373 0.3531549 0.47584414 0.4978159 0.050602973 0.040299244 0.32512006 0.38652897 0.4670124 0.5117471 0.102510095 0.3648012 0.32978442 0.1511986 0.2729555 0.28048706 0.26520902 0.048009116 -0.24716732 0.42047322 0.47939765 0.49172622 0.26894695 -0.28640696 0.30694437 0.3466467 0.41033888 0.23010336 0.11227336 0.23378304 0.2657904 0.2840609 0.18280354 0.16488001 0.2667328 0.1828991 0.20955229 0.12854089 0.057251856 0.12386035 0.041689523 -0.12294406 -0.13150479 0.17167719 0.24552447 0.1701335 0.06837395 0.07382125 0.34848723 0.27558234 0.44685894 0.44652152 0.02603592 0.45358282 0.47583982 -0.014929548 -0.0018895864 0.44769773 0.46489397 0.47350836 0.37381554 0.16427022 -0.16130075 0.15656447 0.23657817 0.15344258 -0.18259174 -0.14947674 0.3212917 0.31821698 0.05168812 0.20174238 0.27636462 0.31350064 0.35538608 0.11637192 0.23381636 0.47379905 0.19690627 0.4747976 0.47347045 0.4329125 0.30593488 0.47463924 0.7691325 0.73687255 0.811635 0.8306848 0.848209 0.86701465 0.54418707 0.662639 0.8588011 0.43476483 0.6781711 0.3244416 0.5442306 0.43276778 0.38836107 0.28827983 0.21244144 0.26090688 0.4441082 0.4482356 0.3752616 0.11101277 0.42626768 0.42822418 0.0051253065 0.3980662 0.38401985 0.08711276 0.5244521 0.51944876 0.55414784 0.24603957 0.26566106 0.5416009 0.5425739 0.54789644 -0.18000379 0.53848666 0.52929604 -0.20780136 -0.45230573 0.43466285 0.3452909 0.05943258 -0.25798678 0.35149032 0.5161889 0.5948093 0.63680243 0.06757875 -0.11422016 0.5303827 0.57276833 0.605206 0.10942123 -0.20186785 0.47334665 0.05933745 0.23409536 0.22122556 -0.17454603 0.24204746 0.1307067 -0.025080506 0.12005683 -0.1887187 0.061714943 0.22223318 0.4372527 0.10289799 -0.03669691 0.29548848 0.33987942 0.49789244 0.46468925 0.3615464 0.1576921 0.16848691 0.28347197 0.33400422 0.33804914 0.4996664 0.48404226 0.43134248 0.2108281 0.054616414 0.19088244 0.26809812 0.32859343 0.35690755 0.45956007 0.38427418 0.24264416 0.34890896 0.38412154 0.29662973 0.2138277 0.24074157 0.3748324 0.42127103 0.39060497 0.21244997 0.28053248 0.42184764 0.45247054 0.40458018 0.4274671 0.23077649 0.3186194 0.38040745 0.4954766 0.5099722 0.4074878 0.30433804 0.33327287 0.00889764 0.2382591 0.27680987 0.29801342 0.6277355 0.61667204 0.431863 0.23106638 -0.05278299 0.6665689 0.67693365 0.6419842 0.52679014 0.2687361 0.35133755 0.08944784 0.6958315 0.66947424 0.5848292 0.49058998 0.45622557 0.3869338 0.34866637 0.25066903 0.6533935 0.4726717 0.7105682 0.69588 0.7277163 0.63115567 0.6910405 0.7787144 0.8152348 0.50608176 0.8036772 0.37755024 0.5988358 0.37207872 0.33739215 0.2573152 0.41378105 0.19635649 0.425446 0.16202024 0.40906978 0.08159248 0.38722265 -0.16028076 0.11620785 0.2922217 0.17170131 -0.22954786 0.53918624 0.5180664 0.48514748 0.26717696 0.06235826 0.45813447 0.5621943 0.50574017 0.19480158 -0.0034323204 -0.16624272 0.5719929 0.43740058 0.49671996 0.6406298 0.6829052 0.6807121 0.54118705 0.37739182 0.6588558 0.47046632 0.32626763 0.57929945 0.20361522 0.03751031 -0.030154586 -0.11531092 0.09326373 0.122469425 0.19046786 -0.039064754 0.20533837 -0.10118013 0.28868267 0.31186986 0.473562 0.4008898 0.2642095 0.10116914 0.32752335 0.30375895 0.49812958 0.32562473 0.5024963 0.34043652 0.47852105 0.4633206 0.38004243 0.3646049 0.37040812 0.20346752 0.4260341 0.4327336 0.26972634 0.49047256 0.50605977 0.3223483 0.24681692 0.5729603 0.55609155 0.2511235 0.24064744 0.10164726 0.26850095 0.32858872 0.39409596 0.5374144 0.5993564 0.59939337 0.21304594 0.03070669 0.45510304 -0.13402462 -0.051873412 0.15586416 0.2343252 0.18299967 0.658581 0.46950746 0.09383165 -0.042208783 0.7050556 0.71072674 0.37314937 0.34271926 0.38410366 0.35772842 0.22005723 0.15750775 0.7147917 0.71465164 0.687104 0.5489949 0.6487279 0.6983496 0.5242713 0.57419586 0.6093495 0.7011893 0.7736986 0.41966796 0.76727605 0.7120161 0.2701732 0.3028432 0.4653163 0.30763045 0.27059942 0.34169543 0.32581615 0.22970727 0.3683411 0.16174772 0.27708888 0.19636413 0.2580959 -0.005477652 0.45572647 0.3496004 0.11101461 0.36721534 0.42522773 0.40542966 0.5357287 0.47548833 0.28106388 0.29029292 0.56786 0.57028425 0.10024159 0.07481451 0.3438407 0.5197166 0.59096265 0.5904265 0.43627536 0.5694902 0.62169284 0.6502311 0.5890046 0.57927036 0.6133143 0.51060796 0.5524862 0.40830243 0.21053648 -0.0029096305 0.050891742 0.24133584 0.24614978 0.26238388 0.24704692 0.15469353 0.26609468 0.47176296 0.23615986 0.26226217 0.48097026 0.501351 0.25798163 0.4692668 0.48932898 0.25290546 0.31773984 0.4603912 0.3326326 0.34638882 0.14631802 0.41045088 0.107169025 0.4501658 0.45872054 0.071174674 0.15317881 0.52603054 0.4624959 -0.037519258 -0.06448693 0.36253762 0.51631874 0.5704552 0.57874876 -0.20676684 0.07999225 -0.1291727 0.19013177 0.2608065 0.36538228 0.47473812 0.4823524 0.5103257 -0.13695906 -0.018837243 0.1016905 0.07605326 0.6249051 -0.07735468 0.16792741 -0.10241313 0.690748 0.293742 0.123764545 0.29149783 -0.026869357 0.04227011 0.70322967 0.70123184 0.641101 0.5023858 0.66735005 0.42634833 0.4673746 0.50843495 0.68205446 0.6903595 0.27630207 0.25355607 0.16897745 0.14420593 0.19376284 0.17333795 0.08002442 0.08719191 -0.023637101 0.045502283 -0.07773496 0.09823806 0.254642 0.4656657 0.07762267 0.21601543 0.19112532 0.122529164 0.5178082 0.06011685 -0.008025039 0.5747209 0.541865 0.14992774 0.33152947 0.4481424 0.4921101 0.546965 0.57421786 0.42124164 0.49765825 0.5629908 0.2912264 0.46832797 0.010718659 0.25608942 0.29457578 0.05477032 0.27788427 0.04247332 0.24176136 0.21895923 0.12509002 0.20181312 0.16495062 0.39572048 0.15485954 0.4276657 0.36907494 0.15860371 0.3671978 0.18087456 0.3460319 0.26866633 0.07556314 0.022956803 0.3536012 0.3676692 0.041280285 -0.082482144 0.47505945 0.39205357 0.0631834 0.24229056 0.48381 0.5364494 0.055983335 -0.17001931 -0.14767607 -0.10339351 0.37116766 0.44862184 -0.16631252 0.56729645 -0.009806268 -0.02272822 0.6592242 0.6740029 0.01959218 -0.24746267 0.064493306 0.07749008 0.66746485 0.61991143 0.35554737 0.17284884 0.6259003 0.5571088 0.60444176 0.58496404 0.6216978 0.65294397 0.6506533 0.6603503 0.68259066 0.78357923 0.7858039 0.8367032 0.81673414 0.7965351 0.8471296 0.82165676 0.43518934 0.19255218 0.30766097 0.071305394 0.38934493 -0.09377397 0.08229027 0.13134854 0.082570344 -0.0023305975 0.15430637 0.12479748 -0.039183185 0.11927815 -0.08819039 0.19011468 -0.12431541 0.37545907 0.114448905 -0.15373112 -0.12564202 0.45414263 -0.06945207 -0.19749238 0.47671282 0.30309498 0.3582459 0.506068 0.28929102 0.28788453 0.5267904 0.4712978 0.4561033 0.4575153 0.11495699 0.52233946 0.54477465 0.47243643 0.39184391 0.15177754 0.40508556 0.43524897 0.48931155 -0.043416604 0.2588098 0.2716417 0.34006852 0.37085503 0.05563029 0.28083897 0.2606113 0.2851163 0.26072672 0.1750795 0.21620268 0.17547421 0.06600421 0.101438925 0.17365864 0.11732748 0.09855679 0.27999496 -0.12731358 0.2649073 0.27981353 0.16127108 0.19879657 0.3101024 0.3176363 0.17252597 0.09775345 0.3686564 0.21603611 0.36339355 0.17904796 0.13581525 -0.33434233 -0.053568922 0.19708163 0.35463095 0.30639035 -0.24574046 -0.30057976 -0.24486713 -0.28433555 -0.23944739 0.3541963 0.19476758 -0.074695095 -0.34220678 0.47616622 0.14384595 -0.027622089 0.6064194 -0.2502007 -0.51122797 -0.04286328 -0.13384683 0.20958042 0.3646688 0.2727802 0.5628556 0.43726823 0.029857047 0.3311271 0.0011643544 -0.028157428 0.0620654 0.015788488 0.36534125 0.50944316 0.47505918 0.4968315 0.39417374 0.45505893 0.4671894 0.50016487 0.41613263 0.4154576 0.6189518 0.6288593 0.55589914 0.4924808 0.5291082 0.54659456 0.6148577 0.5684755 0.4791972 0.5719237 0.6385757 0.6106324 0.54588366 0.5592265 0.62338334 0.6420825 0.58507407 0.5271232 0.65350145 0.71685064 0.7049796 0.65021986 0.41958606 0.4607901 0.7254176 0.76125574 0.73883176 0.69591635 0.45934367 0.47630402 0.48854956 0.49264914 0.7433926 0.72287726 0.77680135 0.766361 0.7675173 0.7619486 0.7245871 0.84668136 0.836486 0.78090525 0.753057 0.8652402 0.8854326 0.87471664 0.8388573 0.79906195 0.9047792 0.9232061 0.8923557 0.65663135 0.7080878 0.7357368 0.67273104 0.66941756 0.6776258 0.6376016 0.44317672 0.44097412 0.50942975 0.58756 0.49675316 0.62901485 0.6446749 0.63482064 0.1533744 0.43715307 0.5012059 0.3548746 0.43956095 0.53842676 0.38853496 0.3646421 0.3878222 0.57773757 0.5151658 -0.14019188 -0.20369913 -0.23787913 0.14439417 0.35971156 0.31683856 0.15398622 0.071982756 0.020645738 0.6326194 0.5790323 0.53087276 0.29583424 -0.051784 0.065124705 0.01124721 0.67589974 0.67312014 0.57378185 0.519605 0.47095108 0.04692148 0.0732106 -0.08566655 0.6016628 0.554479 0.46030402 0.059975743 -0.08311144 -0.09007074 0.7031387 0.5926085 0.49151784 0.071953215 0.53818464 0.42019525 0.38927346 0.010374971 0.31364802 0.2767276 -0.32014465 0.44329637 -0.029054292 0.036956765 0.40910044 0.46031794 0.4751644 0.44772184 0.27804253 0.32518214 -0.00051588565 0.02584809 0.39874476 0.45237815 0.30816203 0.05880158 0.112572536 0.35180187 0.41009563 0.17600025 0.22617859 0.2799866 0.35738033 0.23700318 0.25716293 0.26033264 0.2612282 0.18943435 0.19869211 0.19192281 0.032064125 0.065198526 0.044610754 0.005600404 -0.06643585 0.11012869 0.060216635 0.10637928 0.17643657 0.31156576 -0.100233786 0.3674073 0.40923426 0.07115805 0.4250334 0.14689045 0.47271982 0.21663654 0.42314643 0.20546868 0.24339204 0.34118372 0.38485137 0.19798917 0.24580398 0.20379859 0.17072235 -0.24880402 -0.37843108 -0.24683715 -0.12640649 0.11588083 -0.047897696 -0.2412942 -0.3557089 -0.16429678 -0.017399264 0.04006099 0.13019907 0.037211686 0.018236898 -0.0031093508 -0.12669449 -0.02225253 0.012899762 0.062209584 0.12119487 0.33172387 0.5745629 0.29821494 0.20640185 0.08676608 0.12280115 -0.023406718 -0.01568257 0.08642829 0.13071728 0.31525028 0.46814436 0.59656334 -0.028113455 -0.002081573 -0.054535676 -0.07499363 0.13515878 0.22554642 0.19600819 0.45836347 0.59859335 -0.0061137676 0.44721383 -0.23471402 0.1958911 0.334253 0.27983505 0.14663924 0.4499692 0.40344518 0.4206574 0.40156913 0.54671293 0.18127249 0.24936357 0.4834478 0.46141183 0.546425 0.21826492 0.26591486 0.37631798 0.29448003 0.47408265 0.56278056 0.5991908 0.5613823 0.37497196 0.38909966 0.4501108 0.43398258 0.42517477 0.58253324 0.6945807 0.74348974 0.74070704 0.6499814 0.41730875 0.49619526 0.4894704 0.73697335 0.7281879 0.48520344 0.4711346 0.46398568 0.48905304 0.49451023 0.50548434 0.50791264 0.60640574 0.5611201 0.33586365 0.45709747 0.482167 0.728318 0.67946684 0.6827549 0.4120201 0.7779697 0.6782959 0.58536315 0.84688556 0.6966641 0.8424547 0.8935217 0.9326378 0.873136 0.8007995 0.7085757 0.7614722 0.7881192 0.7616626 0.74408865 0.5407923 0.6345221 0.7180529 0.71467054 0.7009882 0.5306704 0.52760553 0.5083108 0.46372786 0.48367327 0.5910608 0.6081799 0.62106305 0.36240137 0.44297877 0.6605536 0.66643256 0.4933424 0.49050686 0.43776196 0.37717295 0.60724425 0.2466675 0.5435013 0.5890416 0.46176893 0.44212922 0.37890372 0.36179006 0.5743084 0.12049455 0.4487667 0.36753207 0.3677743 -0.3970695 -0.1715587 0.28890693 0.5871458 0.5552175 0.33161634 0.34947646 0.080838546 0.5842626 0.5466211 0.48808253 0.44017422 0.3115927 0.31056857 0.26176915 -0.024057053 0.67156494 0.46475255 0.42443874 0.39493507 0.21180421 -0.019698229 0.7293393 0.42407066 0.40380055 0.03424852 0.38985854 0.039568402 0.36461467 0.31455034 -0.0040321797 -0.05884093 0.053292096 -0.05270136 -0.33686948 0.36902913 0.40879244 0.39327428 0.35426688 -0.41022736 -0.44057423 0.34431663 0.38186097 0.41906914 0.38344482 0.00048527122 -0.080073625 -0.40064806 -0.3257598 -0.17675824 -0.048863888 0.3504048 0.357919 0.046712354 -0.46090406 0.054486193 0.33635813 0.00662262 0.04300482 0.21335095 0.25793308 -0.0050633512 0.15254867 0.18790314 0.03634575 0.15824194 0.12373401 0.107973464 0.1351601 0.038725052 0.07264465 0.13239422 0.48188335 0.225514 -0.03405112 -0.030039497 0.09344468 0.15914173 0.60499036 0.47794563 0.23930722 -0.07191367 0.3177126 0.6383308 0.5298697 0.4006005 -0.05718999 0.41449684 -0.26819086 -0.012922049 0.46581694 0.09639311 0.4893678 0.17697668 0.4509848 0.15418258 0.30296922 0.41599935 0.1955438 0.21189559 0.12773661 0.13367994 0.44343698 0.5174544 0.60158443 0.48811164 -0.017776426 0.32901812 0.44743094 0.57721525 0.6300874 0.7241056 0.680562 0.571191