# vtk DataFile Version 2.0
Really cool data
ASCII
DATASET POLYDATA
POINTS 8631 float
4.4051642 15.727919 72.000946
4.295747 15.653393 72.64633
4.3248544 15.670261 73.202995
4.3380804 16.528124 71.98335
4.233538 16.356203 72.594604
4.311294 16.562218 73.2905
4.393729 17.253155 72.03769
4.296733 17.46042 72.46138
4.319869 17.515932 73.13994
4.414676 17.98409 72.18566
4.373334 18.145826 72.828224
4.401843 18.135313 73.13921
5.457048 -12.130781 88.1163
5.4538302 -11.79866 87.912346
5.452559 -11.653891 88.2096
5.3981147 14.133561 71.04318
5.225116 14.237647 71.968636
5.3161387 14.788113 70.733604
4.8060493 14.99171 71.6652
4.662481 14.878099 72.57642
4.5725427 15.179454 73.295166
5.4488106 14.609902 74.35699
4.7710137 15.460778 71.50501
4.73928 15.831569 73.81253
4.855317 16.266476 71.02406
4.5461817 16.53284 71.648094
4.487628 16.661003 73.60516
4.888406 16.447279 73.910614
4.913035 17.249907 71.196106
4.5993 17.623245 71.82516
4.5202546 17.543352 73.567444
4.830674 17.719784 73.93021
4.793475 18.2648 71.95895
4.6313877 18.568092 72.68836
4.669655 18.433521 73.36748
4.948516 18.247967 73.85833
5.408229 18.789564 83.94893
5.370203 18.688112 84.43699
5.360872 18.836197 85.01694
5.13791 18.804064 71.98142
4.934445 18.869577 72.63821
4.9399796 18.838003 73.20538
5.030223 18.699087 73.76595
5.3032002 19.811747 83.78446
5.241682 19.67383 84.4422
5.35178 19.386934 85.102104
5.265998 20.523222 83.766426
5.228058 20.524542 84.46941
5.356306 20.343054 84.93569
5.320329 20.989847 83.82941
5.314714 21.067074 84.17729
5.9829097 -12.841821 87.61741
5.9817233 -12.823153 88.60307
6.111505 -12.778845 89.06341
5.8572655 -12.283547 87.15723
5.650119 -12.384144 87.676544
5.6072245 -12.302881 88.577194
5.8448977 -12.193479 89.18823
6.173567 -11.946909 89.84766
5.9928536 -11.721294 87.03801
5.589493 -11.44132 87.79272
5.5079093 -11.2290125 88.44975
5.678579 -11.480238 89.258705
6.113851 -11.456354 89.96037
5.8765516 -10.845788 87.77301
5.6945834 -10.6902275 88.60998
5.7914615 -10.641258 89.50189
6.0879793 -10.588838 89.978676
6.192723 -10.315437 87.851555
6.0136437 -10.0967245 88.69577
6.0966167 -9.977328 89.338356
6.1474733 -10.176978 89.86071
6.260251 0.34234604 85.64952
6.266964 0.7289025 84.96645
5.834173 0.84234905 85.71025
5.862892 0.83583724 86.32294
6.1039395 0.93220556 86.81763
5.9513493 1.4942486 85.12756
5.6911364 1.3679653 85.72676
5.71142 1.4548995 86.29799
5.9938593 1.4501048 86.8342
6.1730237 1.9454236 85.02948
5.981348 2.198435 85.679245
5.9308424 2.03901 86.39103
6.156086 1.8935546 86.88552
6.285301 12.218996 74.97753
6.254482 12.126775 75.28349
6.356011 12.770867 71.60731
6.211219 13.031492 72.29611
6.0580244 12.941824 74.067696
5.840855 12.847171 74.67296
5.926502 12.63548 75.49291
6.1163487 12.877757 76.26062
6.093663 13.608705 69.97649
5.826698 13.715434 70.59549
5.8397017 13.603735 71.32534
5.529392 13.864548 72.276024
5.6877813 13.604228 74.03267
5.799554 13.97531 74.159294
5.7087107 13.437358 75.693726
5.9000564 13.492628 76.20718
6.3389797 13.471532 76.81441
6.258768 14.932537 69.1965
5.7633257 14.641876 69.81985
5.60627 14.192142 70.34135
5.7104263 14.400136 74.48588
5.836874 14.673832 75.395134
6.0699654 14.344504 76.331436
6.293242 15.412337 69.246796
5.846899 15.530622 69.809
6.003341 15.160485 74.8822
5.6048675 16.084684 70.27181
5.324838 16.139942 74.25363
6.1717234 17.256443 83.63134
6.1255465 17.116077 84.78335
6.350867 17.16714 85.810555
5.9786115 17.113749 70.132126
5.5181923 17.722034 70.84905
5.8425584 17.332653 74.28338
6.25855 17.907957 83.01009
6.106667 17.685286 83.27793
5.7521143 17.69097 84.313446
5.8058195 17.805365 85.38494
6.1123085 17.782398 85.97068
5.53786 18.284521 71.16516
5.330989 18.467674 71.51934
5.485461 18.436184 73.92752
5.959395 18.668419 83.017265
5.6285467 18.285664 83.677605
5.4862227 18.303968 84.86374
5.585361 18.443186 85.46367
5.8815446 18.524044 85.96903
5.728448 18.70287 71.31753
5.6775784 18.965683 71.783165
5.6865497 19.18636 72.57066
5.4032497 19.00509 73.27258
5.4234414 18.804865 73.709045
5.8378353 19.6373 83.11366
5.566774 19.307142 85.50102
5.9568725 19.422705 85.93045
5.723 20.572231 83.13748
5.4318943 20.668299 83.421135
5.7022934 20.412273 85.43751
5.892965 20.35884 85.696106
5.904421 20.95614 83.12029
5.683591 21.357088 83.673386
5.557641 21.360355 84.37164
5.860871 21.15857 85.14302
6.203731 21.047932 85.6939
5.9072948 21.640917 83.86117
5.9646583 21.696272 84.29224
7.4691234 -14.226356 84.768005
7.1099005 -13.575866 88.613815
7.1204724 -12.79345 86.78485
6.429964 -13.176667 87.69434
6.844473 -13.369298 88.4427
6.948937 -13.134766 89.421715
7.073274 -13.046255 89.81297
6.410403 -12.668903 89.56816
6.7821627 -12.247844 90.156296
6.780274 -11.333341 90.43534
7.0527334 -11.348256 90.56867
6.4069166 -10.947277 87.05364
6.501205 -10.680753 90.28389
7.0634027 -10.810482 90.54878
6.5887704 -9.6842165 88.62859
6.41963 -9.740775 89.515076
6.6287823 -10.013171 90.05975
6.8717923 0.1386674 84.76474
6.7836165 -0.10397005 85.59953
6.759113 -0.02692011 86.28128
7.1971736 0.6960782 83.96691
6.674712 0.56886905 84.668
6.3795977 0.36104643 86.628136
6.5810475 0.5956111 86.958405
7.4133377 2.0486245 82.497444
7.0402775 1.7833873 83.98172
6.5508313 1.5788952 84.42922
6.5448036 1.5774208 87.16809
7.3351 2.8039026 81.657104
7.1327534 2.963493 82.30426
7.2034845 2.6454542 83.35217
6.581405 2.33751 84.87488
6.6642375 2.5755162 86.6759
6.5325294 2.114832 86.976746
7.434907 3.5783486 80.46754
7.228059 3.442375 81.56012
7.1176524 3.5243568 82.50083
7.240466 3.5285814 83.55991
7.193762 3.362478 84.42801
6.783095 2.912093 85.5339
6.7972937 2.7813656 86.41603
7.4069047 4.4748573 80.49126
7.2750015 4.453455 81.40342
6.868591 4.540369 83.30964
7.13304 4.738915 84.1461
6.78638 5.249671 82.65293
6.706103 5.4556556 83.46438
6.927841 5.658315 84.07705
7.242555 6.191571 82.131035
7.002629 6.4086695 82.6913
6.828904 6.102885 83.49694
7.189525 6.469039 84.08924
7.2615457 7.182441 82.72667
7.3567533 7.4001384 83.15369
7.399372 7.0459323 84.09791
7.155265 11.148041 76.76599
7.3852177 11.097009 77.03727
7.1317263 11.993667 71.38492
7.0784183 11.914837 72.48614
6.679153 12.148439 73.62833
6.6291056 11.967795 74.271194
6.823628 11.945751 76.60493
7.3143673 11.487061 77.26099
6.7405972 13.043524 69.950584
6.6230826 12.760439 70.73924
6.5780215 12.537309 71.414444
6.446657 12.594998 72.39153
6.6449823 12.371166 73.98295
6.7135944 12.867165 77.196976
7.300008 12.843496 78.06305
7.1051106 12.837464 83.93199
6.933677 12.863492 84.59626
7.2410693 12.6537485 85.114456
7.4988556 13.200936 66.66699
6.945561 13.733548 68.928505
6.35051 13.555379 69.79437
6.8152623 13.599647 77.401436
7.061562 13.234464 77.86571
7.072667 13.590042 83.69308
6.770332 13.487508 84.60474
6.9246264 13.553773 85.22705
7.336968 13.500461 85.93456
6.711595 14.715783 68.695274
6.6982193 14.271555 77.17916
7.127798 14.674143 83.659645
6.8129187 14.177275 84.41609
6.8798046 14.286303 85.15141
6.8574915 15.145936 68.57366
6.9821415 15.492074 76.030914
7.2667837 16.010088 83.47469
7.105553 15.516474 85.276054
7.1965218 15.464005 86.06816
6.3111615 16.548306 69.61044
6.6364927 16.640673 74.097496
6.5501733 15.85452 74.76855
7.1726093 17.145824 82.631134
6.671356 16.715565 83.519165
6.534846 16.726942 84.31607
6.486068 16.759924 85.38309
6.8485527 16.837072 86.236984
7.3155217 16.582838 86.88123
6.7926617 17.176172 69.61959
6.4738874 17.108734 74.182144
6.544754 17.328163 83.115875
6.7419505 17.522818 86.51849
7.188223 17.426414 86.93439
6.6255436 18.137798 70.622246
6.799743 18.09573 82.335365
6.70947 18.574326 82.526344
6.4489007 18.72283 71.224625
6.4585032 19.090166 71.82647
6.4184856 19.17838 72.41671
6.295305 19.011984 73.26678
6.6084414 19.394758 86.353966
6.8798094 19.025698 86.568954
6.361699 20.386261 82.844986
6.352115 20.308212 85.979996
6.4579625 21.138918 83.08259
6.218599 21.498613 83.40145
6.485939 21.465778 85.47057
6.916551 21.205399 85.934364
6.399647 21.708723 83.7187
6.3378963 21.845108 84.37892
6.4647245 21.698254 85.101814
8.365401 -16.07864 83.04097
8.344306 -16.357494 83.43174
8.225861 -16.146755 84.39014
8.227881 -15.750522 85.067314
8.276155 -15.691053 83.057205
7.931097 -15.329874 83.740486
7.7093325 -15.21607 84.59975
7.781111 -15.181694 85.21631
8.027224 -14.994387 85.88922
8.364844 -14.991593 82.90992
7.844241 -14.497883 83.74606
7.571371 -14.447507 84.522316
7.6095676 -14.590108 85.5218
7.919967 -13.873531 86.860855
7.9909596 -13.635433 87.512474
7.94824 -13.87895 88.5217
7.9188175 -13.68796 89.344
7.891051 -13.654484 83.62764
7.6207314 -13.624854 84.31937
8.098747 -13.587456 87.0322
7.439162 -13.350571 89.59623
7.792395 -13.075879 90.17941
7.901675 -12.697265 83.93451
7.709879 -12.296637 84.835304
7.701572 -12.513505 85.88705
7.575895 -12.608426 90.46863
7.8865123 -12.372652 90.70281
8.0646305 -11.650875 83.78482
7.841642 -11.599661 84.42656
7.7323046 -11.66618 85.17377
7.4418626 -11.574045 90.66406
8.403332 -10.489116 83.685074
8.166985 -10.75455 84.44817
7.51897 -10.459443 86.786736
7.6023555 -10.962704 90.6455
8.200145 -9.98943 85.34201
7.934688 -9.912525 86.61067
7.5824413 -9.663981 89.68271
7.3297095 -9.900364 90.11493
8.389561 -7.5658827 87.76755
8.436151 -7.1343827 88.10517
8.471523 -6.7595453 88.18351
8.352948 -2.0603538 97.719574
8.369677 -2.0476277 98.03699
7.947251 -0.72183454 85.00899
7.8461385 -0.7458726 85.59119
7.71631 -0.6511923 86.18934
8.41526 -1.214426 95.70792
8.287514 -1.6386542 96.5677
8.105786 -1.3462003 97.637
8.248126 -1.3799509 98.264565
7.672796 0.05641666 84.000496
7.4922476 -0.30540162 84.73569
7.3056846 -0.3952133 85.43323
7.34937 -0.29590303 86.72288
7.8198304 -0.09308779 87.130325
8.332681 -0.020523608 94.62909
8.345883 -0.32434985 95.13825
8.272521 -0.3499529 96.61769
8.146357 -0.59823453 97.61218
8.260557 -0.8750974 98.27872
7.969364 0.82859623 82.5921
7.5872145 0.610296 83.568535
7.474863 0.54471385 87.31667
8.341274 0.24737272 94.1637
8.227628 0.5820244 94.7618
8.231056 0.71002233 95.22121
8.331932 0.33110744 96.38564
8.38214 -0.009106666 97.39376
[...]
POINT_DATA 8631
SCALARS features_00 float 1
LOOKUP_TABLE default
0.5218116 0.5411019 0.5232104 0.5861702 0.60791504 0.6259091 0.6497283 0.6888161 0.71319675 0.72579294 0.763804 0.7678621 0.74896896 0.7349522 0.75153047 0.3175434 0.29700086 0.37440556 0.41198015 0.40682232 0.43402877 0.37666482 0.4532986 0.4755464 0.4834091 0.5553765 0.62341624 0.5707994 0.5808102 0.671762 0.72157586 0.73620784 0.74227583 0.79759693 0.7980875 0.77776194 0.5866319 0.57845914 0.58125293 0.79337835 0.82447505 0.8312243 0.8178405 0.7236407 0.69143975 0.62351274 0.7909086 0.78225243 0.729288 0.8020468 0.80854714 0.6944723 0.7125006 0.69584 0.6816228 0.72242415 0.7603648 0.7569284 0.7140827 0.6297847 0.7095943 0.76174283 0.80098283 0.73879933 0.67212147 0.7711077 0.8003845 0.7486979 0.6408064 0.7625897 0.7761121 0.75153565 0.7717694 0.66525984 0.8681444 0.91382015 0.8937413 0.74010235 0.89424026 0.9294737 0.89603746 0.6708963 0.8344643 0.8748008 0.8387209 0.29954553 0.328324 0.2027829 0.17415594 0.25781918 0.32425734 0.381806 0.3757541 0.30581352 0.30096784 0.26593184 0.237572 0.31599596 0.35698447 0.4150949 0.3961849 0.33190197 0.32990667 0.35923597 0.34546214 0.39287263 0.4234575 0.39869097 0.33988822 0.37708247 0.4271232 0.42553103 0.5114488 0.36286512 0.4424002 0.3783971 0.48783827 0.5889312 0.66544765 0.36138946 0.37559062 0.48501688 0.48921275 0.43468574 0.67082834 0.72726417 0.800208 0.47179145 0.50794935 0.5401198 0.5318992 0.4964509 0.72159135 0.7933461 0.87938815 0.86622626 0.8423968 0.6401865 0.58977693 0.5530077 0.7477348 0.780697 0.66948724 0.6249487 0.7435179 0.788218 0.8106503 0.75103915 0.6469469 0.787712 0.8045848 0.50279725 0.50312936 0.49128255 0.6121642 0.54344165 0.5896611 0.5926622 0.6598097 0.6365347 0.6463927 0.6116061 0.52653897 0.6860587 0.60756135 0.69311273 0.73920524 0.6834183 0.53619593 0.64929754 0.72760046 0.37559062 0.55511975 0.8348688 0.82887757 0.1520213 0.29983714 0.48465136 0.7925886 0.19844957 0.18789749 0.14884877 0.5428007 0.68679005 0.74673355 0.24914509 0.22929582 0.20132202 0.15516832 0.21063116 0.6304847 0.64831823 0.23739322 0.2352846 0.2859933 0.32319272 0.3418585 0.3959873 0.38817412 0.32144332 0.3811094 0.41665298 0.40099323 0.38115504 0.4053375 0.40575263 0.23547456 0.19244857 0.15006179 0.100309044 0.14135438 0.19004118 0.29263356 0.1953001 0.2523469 0.23224294 0.19595641 0.1460206 0.1834245 0.2566027 0.1649349 0.56251144 0.5859705 0.5585357 0.57067215 0.25035468 0.29548022 0.25567165 0.19037327 0.48640198 0.5530983 0.5062174 0.44648376 0.28959525 0.29252204 0.2663965 0.4684474 0.42242527 0.2837737 0.29669052 0.092384435 0.24480124 0.21589516 0.40485168 0.3740294 0.33895063 0.16785976 0.24665906 0.3444402 0.35646492 0.26286998 0.19090824 0.42023325 0.48999703 0.29104155 0.3174169 0.24717821 0.5701269 0.25928366 0.34611216 0.67537487 0.75759864 0.8478009 0.9017559 0.48123306 0.41778103 0.6492053 0.5634726 0.6803812 0.7320155 0.6808399 0.5697928 0.7340829 0.78280956 0.73714066 0.8439854 0.8782581 0.7959578 0.6797252 0.7819586 0.71787065 0.6703066 0.60335696 0.47021186 0.6527386 0.57059956 0.5585427 0.48586863 0.26417068 0.34249917 0.42055643 0.5095047 0.42893064 0.4074291 0.30181324 0.55539465 0.5657706 0.30554378 0.22572242 0.26709244 0.58057404 0.5614247 0.26660883 0.24486388 0.23211499 0.5734409 0.2078424 0.21702433 0.22119954 0.540403 0.106243946 0.106288336 0.5243045 0.57440895 0.2348184 0.25282347 0.25500655 0.653484 0.6538596 0.40759695 0.45630747 0.5341685 0.436221 0.56901824 0.6145948 0.6110265 0.36817643 0.45783463 0.54285383 0.65433437 0.63382745 0.45113355 0.4385889 0.46104282 0.51988256 0.55511725 0.13245012 0.2834626 0.69936985 0.4618119 0.459077 0.43610784 0.39634472 0.42648262 0.1256074 0.1266832 0.14048648 0.55635095 0.47246996 0.4163471 0.36612797 0.1554933 0.18146771 0.18256801 0.17867616 0.5442023 0.19321755 0.22064579 0.23873103 0.39585155 0.49213192 0.18675059 0.2141813 0.21011347 0.09867528 0.36023945 0.32068396 0.23242003 0.18726388 0.23853128 0.3945728 0.33756664 0.2755935 0.12576737 0.24141616 0.34522808 0.29662457 0.38379863 0.32873565 0.28677484 0.19201273 0.2248703 0.38188127 0.4113223 0.38926 0.3154577 0.24706268 0.20752056 0.17527677 0.281547 0.3665893 0.4234467 0.40988362 0.04705543 0.31256407 0.36190447 0.40963224 0.66578484 0.078820445 0.07206669 0.12979324 0.23586918 0.1519014 0.10105829 0.0056226626 0.8923221 0.7958183 0.6982889 0.53898054 0.13685782 0.100317776 0.095043615 0.18656528 0.17549367 0.13052534 0.47604334 0.5333544 0.52800137 0.48320788 0.92290723 0.8394971 0.65968347 0.533284 0.18053097 0.18272957 0.19884834 0.121826276 0.07950096 0.35792047 0.4650212 0.52643365 0.4816975 0.5690228 0.5856328 0.897029 0.85485125 0.7220851 0.2063466 0.10000727 0.037184075 0.078809395 0.07488218 0.24084423 0.38504595 0.23186673 0.5132607 0.5768689 0.6179192 0.8129761 0.7813548 0.7012848 0.078165464 0.113969296 0.06595849 0.27258447 0.13412611 0.5431596 0.6082597 0.6439945 0.4552944 -0.027659565 0.15710351 0.12893774 0.160981 0.19259153 0.19211213 0.18790632 0.12586345 0.031621993 0.05823076 0.17317927 0.13771458 0.15300968 0.20051277 0.3642218 0.28277224 0.22667444 0.15725093 0.1518783 0.12682845 0.5287656 0.62312245 0.24016048 0.14595827 0.23298645 0.21592435 0.67789316 0.7426969 0.76354325 0.41346353 0.44167912 0.5018251 0.5209784 0.6156738 0.67328453 0.95888036 0.9582039 0.8974033 0.8674496 0.89986813 0.9116559 0.8395122 0.71303874 0.80229276 0.75502896 0.5014369 0.6235695 0.5671986 0.2899223 0.28642973 0.40409905 0.46506244 0.36499485 0.53658605 0.5506716 0.27207428 0.53512144 0.2610949 0.2541802 0.48047924 0.2053898 0.43236512 0.4180917 0.14664677 0.02765406 0.20590752 0.24469864 0.2264951 0.12492715 0.22487171 0.23520567 0.2608382 0.24463053 0.23707274 0.26355523 0.26197347 0.25203037 0.26413104 0.2718452 0.23549926 0.2615908 0.2653443 0.2548048 0.2521764 0.2429173 0.24564363 0.22315529 0.19121909 0.20945366 0.5943639 0.64000297 0.6448927 0.27147916 0.3198567 0.2665094 0.33448255 0.40542787 0.6213895 0.6437624 0.6525016 0.63239247 0.24657485 0.24457356 0.34787586 0.4320917 0.34611097 0.44261312 0.37365955 0.3961439 0.62323093 0.5804312 0.27065602 0.2652045 0.24209501 0.17880687 0.16275902 0.24057323 0.5295969 0.4255509 0.43744028 0.49747702 0.47318548 0.18755294 0.017353356 -0.042260904 0.15970281 0.5278389 0.39152455 0.46939397 0.33457518 0.41465408 0.39980298 0.11429645 0.051900532 0.049323916 0.08798161 0.2833827 0.47966236 0.3780047 0.299503 0.25083002 -0.009109085 0.011385042 0.41369367 0.39049312 0.38159487 0.06518477 0.123956695 0.18096204 0.29707623 0.2889343 0.2366921 0.2604624 0.022918 0.4045495 0.47593322 0.46549773 0.34447643 0.3565584 0.16390048 -0.01541171 0.3996787 0.48390973 0.53510594 0.38274246 0.23872396 0.18041065 0.5286695 0.5680332 0.53125226 0.3435909 0.27552646 0.23151359 0.5379338 0.5889503 0.5561948 0.20517325 -0.015445693 0.37040418 0.29877418 0.60250044 0.5980459 0.17424527 0.15297078 0.11934781 0.097095594 -0.10797702 0.32843417 0.40059268 0.40950185 0.7280042 0.66806436 0.5828805 0.35695118 0.11491816 0.1306181 -0.033208087 0.0005580783 0.24489017 0.34477347 0.35602546 0.28305086 0.90337014 0.7908664 0.02168157 0.0038079247 0.46224642 0.4276238 0.60813904 0.6460475 0.88568556 0.9221486 -0.036828935 -0.041953288 0.2514003 0.5654451 0.58663595 0.5976964 0.66918623 0.69433165 0.867045 0.8508088 0.51266015 0.6278949 0.68349373 0.8131516 0.7551664 -0.047358125 0.4092076 0.50368667 0.6224323 0.66457003 0.6777234 0.66615367 0.53925836 0.48533607 -0.062744156 0.12265923 0.05260332 0.54412746 0.60625285 0.45405298 0.34923655 0.24700136 0.16186893 0.049579866 0.23169635 0.25331187 0.13177624 0.3172607 0.44645667 0.12838152 0.17207488 0.15678586 0.26486728 0.29764643 0.3191545 0.5042283 0.2877037 0.30611324 0.2625297 -0.09817131 0.30561823 0.27963567 0.12974104 0.037476785 0.1803272 0.25834307 0.19532211 0.48329508 0.35642424 0.3081606 0.43569678 0.59959257 0.5388271 0.47210142 0.62879574 0.5919693 0.50295234 0.56462646 0.73178697 0.66910636 1.0 0.9896159 0.9268639 0.8919914 0.936746 0.8288338 0.7758899 0.8034537 0.54916453 0.6754738 0.33469433 0.39723706 0.4378704 0.41002697 0.4613371 0.26568282 0.28088233 0.50670254 0.20363086 0.1975748 0.44121394 0.36038953 0.339472 0.26728147 0.15289235 0.061972395 0.3052376 0.22381747 0.10888262 0.1601612 0.086308405 0.24446043 0.20938447 0.16445433 0.23898529 0.21179909 0.41175473 0.27964357 0.18084447 0.23334546 0.19591027 0.1921754 0.37506133 0.39499214 0.4127668 0.31690004 0.21055827 0.22029877 0.16129835 0.14370757 0.14725192 0.158365 0.34279847 0.36549652 0.39280453 0.33523148 0.25635207 0.1719081 0.028158374 0.10741016 0.2012418 0.22141013 0.5614171 0.6042349 0.62053835 0.60377765 0.23852885 0.23906791 0.23571609 0.28855777 0.2093605 0.09758502 0.1830676 0.20631452 0.2639158 0.58671 0.2751031 0.27070096 0.2150794 0.2009987 0.13200256 0.11409896 0.031095825 0.20607647 -0.15883352 0.1278629 0.18201226 0.19066992 0.21293136 0.3102321 0.50658566 0.23815396 0.28019992 0.28071526 0.12087428 0.14648837 0.121400736 0.12683623 0.16227672 0.36032605 0.40003175 0.21509331 0.22652516 0.22997269 0.20032147 0.20356789 0.23820843 0.23089561 0.15851936 0.17342213 0.11128297 0.23943904 0.34794518 0.12956761 0.10909368 0.10362624 0.2408191 0.21371672 0.035141513 0.053668052 -0.073079646 0.15776755 0.2542022 0.050051916 0.04897334 0.18529926 0.170136 0.2559805 0.23584723 0.04921771 0.035509173 0.11790754 0.26916564 -0.1375956 -0.2644532 0.14951602 0.16798152 0.2111226 0.27745652 0.1409148 0.10595415 0.18877056 0.010888342 0.18159376 0.21039721 0.24020837 0.22038588 0.4096173 0.43185464 0.3379067 0.19314733 0.15738408 0.22993927 0.21749689 0.33976054 0.4077434 0.5279423 0.4421249 0.21357161 0.17835023 0.09711041 -0.036838084 0.12154695 0.5478437 0.61215425 0.56715107 0.5005964 0.12215929 0.14865886 0.20524888 0.19332254 0.3129408 0.28462213 0.5857238 0.71397305 0.66148514 0.56382084 0.025122605 0.027181948 0.08866426 0.18152294 0.29487342 0.86066395 0.7687218 -0.0026077628 -0.08313657 0.30523768 0.32148403 0.31978536 0.579633 0.6888217 0.8620224 0.84989977 -0.09020558 -0.07752113 0.1292173 0.2284264 0.033693787 0.40228307 0.70770395 0.801019 0.75278 0.70591336 0.6937715 0.7717694 0.7121395 0.64011294 0.6145477 0.5126929 0.21064276 0.52907187 0.45986676 0.36482826 0.23513168 0.0128907785 0.24638358 0.3675306 0.41634494 0.43543088 0.17966318 0.12024045 0.056607336 -0.06259458 0.019521087 0.24076572 0.08186472 0.19378021 0.25526914 0.34389013 0.2018223 0.060400262 0.15428084 0.18646322 0.31460592 -0.04625163 0.075016215 0.11790774 -0.08639612 0.049924284 0.48635465 0.36222583 0.31892216 -0.24684021 0.5610863 0.57940245 0.44841492 0.21535638 0.63358223 0.64404947 0.54938066 0.36483282 0.120312 -0.05426738 0.46732038 0.4127888 0.34513205 0.6365564 0.6464747 0.5159303 0.27699083 0.58582747 0.68636644 0.6356838 0.5541654 0.48918566 0.62483263 0.62886906 0.60890627 0.5557436 0.4465876 0.743851 0.7686466 0.6813733 0.5955836 0.7325753 0.7732774 0.78810716 0.73804945 0.68449116 0.7457526 0.78516316 0.7545053 1.0 1.0 0.9107265 0.88850486 0.9514195 0.7906579 0.6634677 0.7957375 0.52461123 0.42724472 0.66745836 0.19309112 0.46824297 0.24682784 0.38406003 0.32974342 0.4099096 0.4246566 0.37846804 0.34431088 0.4128585 0.42218503 0.39436316 0.3331436 0.413508 0.37692827 0.057644382 0.20776993 0.37531453 0.31587377 0.09615053 0.24402744 0.17271982 0.11969501 -0.018259943 0.36660588 0.39435595 0.25559324 0.17502774 0.20863464 0.3448582 0.36929673 0.27973706 0.105829924 0.01275738 0.18260762 0.14698887 0.04488212 0.32428354 0.18848109 -0.030564845 0.10549565 0.10298824 0.21520187 0.4602356 0.56750447 0.5444954 0.19037522 0.16311222 0.08983579 -0.14824349 -0.033786885 0.2832587 0.10589266 0.4390785 0.256262 0.24432823 0.22301394 0.003732752 -0.16081944 0.16744912 0.1651249 0.12213909 0.39178723 0.4239812 0.22268483 0.2263278 0.23456627 0.2534216 -0.04506941 0.04452488 0.094964094 -0.028445631 -0.29748863 0.36149675 0.39037603 0.7826959 0.760506 0.6598239 0.2223165 -0.019444581 0.35782117 0.3899202 0.7975806 0.75356174 0.61731666 0.15905641 0.1059525 0.07748456 0.06376836 0.16184089 0.3222552 0.8136438 0.7538103 0.57975894 0.30615914 0.132773 -0.019131064 0.12589495 0.74331385 0.5324143 0.32184723 0.03229032 -0.030839078 -0.019920703 0.055798963 0.1053575 0.12551694 0.25482053 -0.043903418 -0.2063892 0.06681162 0.17763671 0.11761013 0.17790496 0.17677648 0.048111983 -0.027309418 0.111295424 0.118891954 0.20427428 0.22428313 0.14975926 0.14874974 -0.07390238 0.15006174 0.14951162 0.16118813 0.08543997 0.22145008 0.24942455 0.23731627 0.22089462 0.21620022 0.35666686 0.32219774 0.22048554 0.2273039 0.22339801 0.20598812 -0.023587719 0.26189363 0.24727455 0.21155101 0.44778037 0.5177933 0.4610109 0.19352585 0.18727294 0.2037492 0.096963204 0.41825116 0.5279479 0.53524065 0.5591861 0.1318905 0.7403946 0.64795494 -0.19010887 -0.4461182 0.076338045 0.37057042 0.45461386 0.61189026 0.5397921 0.7550213 0.5824436 0.5447857 0.6439718 0.6766148 0.59076035 0.62322915 0.58974457 0.5890361 0.526136 0.43544394 0.35205847 0.2821481 0.07512758 0.38269717 0.27211446 0.24461736 0.018603586 -0.01944473 0.101456106 0.07193795 0.2898152 0.3096559 0.51027745 0.50193405 0.5007058 0.3066002 0.09136707 0.20206228 0.2413057 0.17069116 0.15971379 0.065020636 0.0998656 0.35134068 -0.18382904 -0.07992291 0.016711228 0.12585142 0.54541147 -0.00053759664 0.030989721 0.17376544 0.5986891 0.20796382 0.08160744 0.6008214 0.6100129 0.31803814 0.2212854 0.38415223 0.3145666 0.55029845 0.5707949 0.5816909 0.5699328 0.47744054 0.3207978 0.29917538 0.6098382 0.5116039 0.42979193 0.51202404 0.6786696 0.70450807 0.6208061 0.7316186 0.75882375 0.7239185 0.6911816 0.8603754 0.92355454 0.9108708 0.7228154 0.78735536 0.797898 0.7350305 0.5608019 0.5062431 0.6767924 0.60515344 0.23526378 0.21016093 0.14394379 0.13733801 0.48378006 0.10658143 0.19266179 0.30384108 0.2916354 0.32875505 0.37618813 0.4241104 0.40666112 0.38430175 0.42627478 0.33324325 0.3978125 0.15032992 0.32199487 0.024186209 0.043613687 0.18556857 0.070813835 0.20773397 0.19999504 0.07700594 0.2434858 0.21537317 0.15462843 0.10833441 0.29026273 0.10758439 0.5027687 0.52829635 0.38045502 0.354986 0.247217 0.12986165 0.15483841 0.4455918 0.5386907 0.33725655 0.29871798 0.47852778 0.5193801 0.23801276 -0.1784488 0.43820107 0.44016847 0.7893052 0.7885095 0.7481524 0.33408022 -0.31774205 -0.22134301 -0.3679278 0.39347425 0.80207753 0.8034407 -0.38585693 -0.29729632 0.26297063 0.79910743 0.8129641 -0.5070879 0.1733588 0.7482538 0.7779486 0.0012723543 0.3089906 0.39759827 0.70929044 0.6684948 0.45194793 0.20888582 0.08290458 0.3827004 0.44990867 0.5075501 0.45957574 -0.06406089 0.3630969 0.4506672 0.07960348 0.28390247 0.21016294 0.17127758 0.07943408 -0.022230275 0.24356586 0.29007596 0.3265372 0.22475854 0.2277756 0.23040482 -0.07310099 -0.36425424 -0.25093672 0.19490361 0.26603806 0.30812067 0.339781 0.2793124 0.33219552 0.34004572 0.22926271 0.21699366 -0.08683841 -0.24108618 -0.33552364 0.110276386 0.26164934 0.29086137 0.118122 0.339598 0.46082348 0.44687757 0.3871792 -0.18311137 -0.13146695 0.03575173 -0.49539787 -0.1267805 0.002923064 0.10654402 0.42305908 0.53525853 0.18872938 0.3007856 0.5622015 0.52293634 0.35212824 0.36850864 0.49766946 0.39011997 0.48286223 0.43900603 0.41650444 0.40781766 0.3675223 0.3555087 0.3598969 0.32447028 0.34769848 0.12117617 0.3164939 0.5216243 0.5405407 0.39844388 0.15628588 0.15101059 0.016171988 0.14573416 0.122302026 0.5705676 0.59916484 0.5901102 0.014961338 0.13887662 0.10111305 -0.110414095 0.13158333 0.2987447 0.43245324 0.1415449 0.33830264 0.47269133 0.09803623 0.36167103 0.5376938 0.22828856 0.5105785 0.49973875 0.39079118 0.50283724 0.3098386 0.49264264 0.4389155 0.4767751 0.44580668 0.58989227 0.5539938 0.63610244 0.7090283 0.6920854 0.6564715 0.68481207 0.48676383 0.36725014 0.29585072 0.19549355 0.19146025 0.3871192 0.17754011 0.120927885 0.12993595 0.37275997 0.29612944 0.11194188 0.16291979 0.3370997 0.34341988 0.3314435 0.42431712 0.29524094 0.3822317 0.12933978 0.2568238 0.15928565 0.17284068 0.16279975 0.24348879 0.045001406 0.10556976 0.07130635 0.4099627 0.31092232 0.20307037 0.062213957 0.4230287 0.50383705 0.55387914 0.40326902 -0.1639125 0.56329703 0.56949496 0.37213433 0.5486755 0.29039168 0.5084861 0.77804387 0.7526275 0.68479264 -0.33822554 -0.38007617 0.36559954 0.771093 -0.50157475 -0.37200487 -0.37963888 0.7639804 -0.49308342 -0.42286777 0.3097472 0.69897187 0.38981697 0.44128668 0.6672605 0.47023666 0.4717389 0.5641661 0.48218644 0.4941134 -0.16819547 0.28939855 0.2984397 0.40415496 0.47504228 0.16764012 0.029590722 0.32738346 0.19399314 0.279699 0.2856528 0.3366974 0.35947555 0.34910932 0.2275953 0.2164645 -0.21424791 -0.47023138 -0.42194444 -0.00015583634 0.012266934 -0.05717866 0.16334993 0.36153442 0.38816106 0.31330904 0.18615079 0.11579978 -0.10139799 0.27215812 0.2791974 0.41244835 0.36819342 0.21221267 0.396754 0.27085122 0.3985608 0.38202557 0.34946138 0.36252987 0.18141714 0.4385675 0.5177227 0.5246883 0.5661799 0.10965148 0.040268417 0.5842083 0.58612186 0.024351448 -0.07208144 -0.12760839 -0.025035419 0.17281994 0.086707816 0.21307822 0.18923336 0.11126672 0.2841175 0.27502447 0.3097068 0.14969711 0.33537987 0.32570556 0.32667184 0.34409788 0.20134866 0.20388979 0.309323 0.31757808 0.36389238 0.225436 0.25232813 0.12019156 0.10266503 0.18099965 0.53285813 0.4422105 0.56749225 0.61281097 0.41086993 0.4593798 0.47146726 0.45510998 0.45044512 0.41842556 0.43071643 0.3801037 0.14481588 -0.015829101 -0.054000482 0.38537908 0.36409402 0.2840187 0.26618475 0.19961834 0.10380812 0.15395088 0.06539568 0.17099996 0.16981313 0.042433184 -0.0076126084 0.16817068 0.11293514 0.4219396 0.42345935 0.36014518 0.33460644 0.19394797 0.094065145 0.05454581 0.38692978 0.40673572 0.018899493 -0.13484523 0.10528436 0.3752917 0.4981714 0.53473824 0.37674856 0.5462982 0.54584825 0.5211417 0.13312699 0.14592786 0.4875306 0.6630131 0.48036242 0.7212386 0.6723524 0.5140073 0.3970543 0.6923444 0.62232363 0.36484164 0.43045327 0.65390563 0.60180736 0.44743547 0.5525776 0.48599058 0.373751 0.5015031 -0.22414543 0.3705408 0.46267098 0.48754793 0.12941325 -0.17647052 0.31019676 0.2792127 0.2762367 0.124966644 -0.19367878 0.25680894 0.23286483 0.23632619 0.33070266 0.3507663 0.31763175 -0.20630392 -0.11951197 0.12777042 0.17407605 -0.23622987 -0.3396692 0.089621864 -0.18241435 0.040760122 0.06369531 -0.14129417 0.044798613 0.3376043 0.23403475 0.33207077 -0.063279465 0.36040795 0.2809413 0.29696834 0.34315342 0.3821259 0.43123424 0.40775943 0.43222398 0.3941199 0.04519905 -0.037100643 -0.036983352 0.543098 -0.05770701 0.042319 -0.058850177 -0.048727933 0.18596242 0.30997026 0.41735882 0.22663738 0.5827571 0.49750048 0.6261574 0.56742764 0.5713373 0.46948302 0.26671255 0.075972594 0.073608555 -0.044036657 -0.054687485 -0.216138 0.6573937 0.71167684 0.06449995 -0.06493761 0.015020832 0.7875809 0.8259787 0.1563802 0.1161776 0.1397324 0.49242514 0.5880914 0.81471944 0.8659613 0.8583313 0.6967366 0.8051281 0.8255508 0.7936342 0.79949784 0.56955683 0.5771146 0.3766985 0.46651125 0.5120995 0.46931404 0.41636467 0.055584736 0.06750482 -0.07498168 0.12152219 0.14711122 -0.13314907 0.14073524 0.35670963 0.35133258 -0.21677478 0.10126254 0.09381756 0.4482761 0.46602672 0.073669285 0.015256217 0.38271093 -0.12480615 0.057596397 0.28155684 0.42535776 0.32222167 0.4202599 0.4998843 0.18582822 0.22937948 0.4346214 0.054066524 0.36073917 0.36935896 0.02279269 0.17806244 0.38234282 0.37744957 0.42824656 0.4505691 0.40592986 0.45800215 0.49834904 0.48797062 0.3549596 0.49858996 -0.023521543 0.48220843 0.115439385 0.2288895 0.46344757 0.120734364 0.14483327 0.27739128 0.24554412 0.22362708 0.17385682 0.11410107 0.12115018 0.019336097 0.18288204 0.3151054 0.3179761 -0.27013442 0.1571475 0.117354885 -0.23311977 0.3199451 0.09435237 -0.18973598 -0.16913491 0.1787627 0.26799682 -0.2261973 0.16237053 0.3035516 0.33872324 0.33329263 -0.24078542 0.26172882 0.2896435 0.29737988 0.07978251 -0.2068