# vtk DataFile Version 2.0
Really cool data
ASCII
DATASET POLYDATA
POINTS 7229 float
37.47991 5.5493655 80.88114
37.488235 5.2899504 81.219185
38.15627 -4.032899 84.33462
38.122368 -4.2357664 85.62603
38.082928 -4.1816435 86.41554
38.200043 -4.0838604 87.06878
38.354443 -3.3299623 79.86642
38.303993 -3.3486905 80.53877
38.34038 -3.2706733 81.42555
37.90523 -3.292658 83.93204
37.772522 -3.3723261 84.514465
37.74337 -3.3934205 85.32712
37.845055 -3.5299487 86.446846
38.116898 -3.5081336 87.144966
38.33893 -2.6348374 79.729706
38.280342 -2.7061052 80.284836
38.319466 -2.522473 81.14022
38.341476 -2.3989098 82.95773
38.057205 -2.3796985 83.422104
37.716736 -2.7336032 84.53903
37.808434 -2.6757205 85.37333
38.045773 -2.7130945 86.28861
38.194977 -2.9644566 87.0868
38.2011 -1.9978468 83.06374
38.27639 -1.8441281 83.35714
38.03434 -2.0361104 84.56763
38.175537 -2.0380363 85.26851
38.347782 4.1889515 79.70221
38.08201 4.092477 80.88061
38.094524 4.0932016 81.32757
38.075825 4.6794376 79.73788
37.783813 4.6447954 80.58448
37.73637 4.6986704 81.43315
37.929394 4.864713 82.02613
38.414627 5.348257 78.912025
37.937748 5.4012446 79.75411
37.6094 5.4130974 80.65756
37.574444 5.5352764 81.4374
37.844376 5.513607 82.06684
38.145454 6.2615685 79.58341
37.72278 6.3274307 80.85103
37.71046 6.3209577 81.52118
37.971222 6.2986593 82.102066
38.354176 6.9270663 79.89699
38.228058 7.182861 80.55331
38.112415 6.9537916 81.40028
38.197628 6.797011 82.00291
39.16724 -4.7320023 81.47941
39.292717 -4.8452187 82.31316
38.691254 -4.703265 86.444
38.867046 -4.655998 87.14395
38.86206 -3.9887965 79.71886
38.773468 -4.1471677 80.387146
38.80054 -4.145424 81.57844
38.79874 -4.035133 83.513336
38.668053 -4.4698677 84.58573
38.38639 -4.454268 85.545296
38.417862 -4.5750866 86.29183
38.654152 -4.29628 87.32695
38.769863 -3.9513893 87.70232
39.204094 -3.0599036 78.2018
38.891743 -3.322051 78.90821
38.554237 -3.4852378 79.53156
38.436985 -3.6814277 80.11134
38.630894 -3.1905587 81.774155
38.421093 -3.605433 87.480644
38.744633 -3.5310745 87.74008
39.22539 -2.2040174 77.86631
38.84077 -2.4925234 78.73013
38.527336 -2.3532815 79.5526
38.5714 -2.4898388 81.761154
38.54641 -2.773724 87.342735
39.008846 -2.9451098 87.748535
39.29699 -1.6884391 77.90544
39.14188 -1.7457696 78.170265
38.612865 -2.098751 79.69793
38.474915 -2.1601198 80.05724
38.598076 -1.7632769 81.7503
38.552006 -1.450746 82.61626
38.558174 -1.4716158 83.24069
38.364567 -1.656252 84.56166
38.61757 -1.6189876 85.47245
38.68829 -2.0278826 86.429565
38.955154 -2.2398348 87.10358
39.06367 -1.1474999 81.77842
38.929977 -1.0438541 82.58978
38.85307 -1.1724212 83.35368
38.933437 -1.2124465 84.196556
38.86138 -1.4112471 85.097305
39.062424 3.9687088 78.60429
38.5914 3.9551353 79.37366
38.95817 3.5865364 80.4133
38.480476 3.986289 81.573875
38.408607 4.1753607 81.83482
39.000927 4.6250377 78.2749
38.61189 4.3901167 78.868126
38.401093 4.7716775 82.26492
39.10947 5.690444 78.122246
38.422848 5.46316 82.49532
38.767567 5.5383577 82.57487
39.26461 6.2853913 78.04871
38.43506 6.1643267 78.96737
38.549206 6.5663967 79.36817
38.558712 6.514262 82.40227
38.807102 6.2172604 82.58178
38.560402 7.274914 79.68253
38.507427 7.4734755 80.62061
38.61007 7.3619385 81.48426
38.713688 7.0084343 82.11196
39.26799 8.13162 79.13744
39.090553 8.097014 79.69093
38.90446 8.006589 80.33731
38.951275 7.7086606 81.32146
40.171234 -5.749535 81.58753
39.747265 -4.6036973 79.9377
39.795998 -5.05177 80.6809
39.74522 -5.079893 81.27116
39.595352 -5.021315 82.68228
39.29427 -4.7294383 84.53515
39.357147 -4.8897295 85.67958
39.598705 -4.957449 86.61948
39.687233 -4.722228 87.43859
39.9381 -3.7023404 78.01168
39.846317 -4.034236 78.767395
39.484962 -4.3881083 79.73892
39.16794 -4.5331993 87.497215
39.648693 -4.1334395 88.00311
40.095284 -3.0349455 77.081856
39.649086 -3.2202246 77.74442
39.420933 -3.5401237 78.38837
39.872616 -3.4900205 88.27251
39.94929 -2.403996 76.91574
39.559177 -2.3794687 77.48895
39.595474 -2.8019917 87.96926
40.31789 -1.1709602 76.09203
40.090294 -1.2846421 76.543526
39.506844 -1.6592597 77.397995
39.809296 -1.5384234 86.29075
39.791634 -1.9021335 87.16566
40.265915 -0.59491116 76.000046
40.059254 -0.5364594 76.49743
39.530003 -1.1675696 77.579834
39.60632 -0.9705934 78.899734
39.84272 -0.93426883 79.2974
39.69866 -1.0407856 80.896286
39.589848 -1.1343015 81.28843
39.42286 -0.69516754 82.785484
40.116543 -0.7429205 84.16077
39.485237 -1.2167767 85.40788
40.41913 0.17519942 76.1262
40.291794 0.14859092 76.31236
40.321537 -0.2966253 78.201004
40.06721 1.7675724 68.62759
39.992645 1.9128404 69.24778
39.87792 2.764762 67.9875
39.680977 2.6553977 68.61099
39.709908 2.6743019 69.24816
40.041462 2.5219517 69.77978
39.90378 3.589262 67.688065
39.587177 3.6356273 68.60754
39.666355 3.4687645 69.23084
40.08496 3.4402683 69.799805
39.73892 4.03347 78.07284
39.527508 3.73235 80.92486
38.999256 4.0731955 81.76875
40.354362 4.422884 66.873665
39.74623 4.1038857 68.064476
39.802048 4.340362 68.51374
39.905727 4.2578993 69.170074
40.09961 3.932423 69.65822
39.75885 4.4776974 77.897446
39.27726 4.912078 82.32975
40.303886 5.4000325 66.77235
40.23188 5.456849 67.48193
40.236664 5.2137513 68.348045
39.523376 5.6376796 77.79634
39.57211 5.586849 82.40458
39.265717 5.736214 82.59158
40.42887 6.0295434 66.77323
40.36711 6.102288 67.33564
39.768696 6.586866 77.66805
39.285442 6.5549083 82.42435
39.217693 6.178217 82.53811
39.728382 7.511361 77.834076
39.657436 7.120916 82.01657
40.266304 8.640302 77.816696
39.62597 8.441067 78.750534
39.561565 8.561048 79.644936
39.43692 8.395075 80.59515
39.731167 8.205057 81.26465
39.901043 8.83386 79.63971
39.74071 8.645954 80.30215
41.212555 -6.7272143 81.41119
40.95432 -5.7449884 80.28437
40.9241 -6.123868 80.72456
40.64947 -6.21261 81.70831
40.938835 -6.373914 82.16527
40.454086 -4.8817654 79.810616
40.472485 -5.6201205 80.77362
41.098545 -5.3489428 83.50412
40.620625 -5.0257177 85.781845
40.372566 -5.0551777 86.55583
40.620953 -4.9465823 87.225
40.803112 -4.710603 87.83955
41.035946 -3.8662026 66.35355
41.098274 -3.903213 67.301414
41.336403 -3.7557695 68.167046
40.68458 -3.8410864 77.545395
40.427193 -4.2178044 78.70238
40.65684 -4.3148503 88.233864
41.187866 -3.0159593 65.27069
41.088577 -3.3693883 65.68977
40.811405 -3.405176 66.483025
40.79492 -3.4029045 67.31483
41.121773 -3.3314135 68.3727
41.29717 -3.2419617 69.061554
40.57142 -3.2840154 76.96084
40.31514 -3.606892 77.417786
40.43268 -3.632359 88.487854
40.66799 -3.5901115 88.56091
41.157352 -2.3963752 65.0751
40.86095 -2.5674987 65.6874
40.632168 -2.6047525 66.44009
40.66074 -2.401744 67.45765
40.837425 -2.505488 68.35081
41.207615 -2.4126914 69.408005
40.883194 -2.0549867 76.21239
40.521915 -2.9131067 88.349106
41.19057 -1.4304552 64.895096
41.01618 -1.8973731 65.44713
40.728138 -1.3793215 66.529816
40.647316 -1.8340813 67.506744
40.899975 -1.7597066 68.738106
41.127476 -1.4870509 69.26229
40.73347 -1.1789993 75.77419
40.47462 -1.6885886 76.39425
40.25799 -1.4681573 86.666725
40.54855 -1.8727262 87.37484
40.618565 -2.313168 87.92483
41.331333 -0.5216624 64.562675
40.949303 -0.6555717 65.516846
40.973637 -1.0665138 68.28281
41.18099 -0.9757665 69.13705
40.888474 -0.48418856 75.37458
40.546993 -0.5661984 75.68759
40.29879 -0.51969624 78.643166
40.727367 -0.58249414 80.34634
40.53404 -0.52712923 81.78494
40.536434 -0.59549 84.27844
40.90673 -0.9239505 85.52445
41.294216 0.2543484 64.820305
41.11467 0.49561012 65.543434
40.981606 0.1513936 66.493645
40.98931 0.7857995 67.66022
41.158745 0.3177232 68.71417
40.947594 1.1845808 69.39231
41.219753 0.3665964 75.12161
40.7319 0.31774515 75.65233
40.5518 0.60540724 76.16305
40.594067 0.5958768 77.201324
41.118755 0.5487594 78.289986
40.897243 -0.3353894 82.54038
41.369633 1.0384605 65.42097
41.22733 1.1726017 66.34432
40.88822 1.6792703 67.385574
40.50423 1.366069 68.59188
40.331837 1.6894737 69.65001
40.91056 1.9080299 70.04541
41.277325 1.3309231 75.70928
40.997757 1.332729 76.52691
41.3323 1.0051346 78.0131
40.79091 2.3854115 66.849884
40.780277 2.6619494 70.1865
40.216827 3.340412 78.61795
41.138912 3.6118288 66.34812
40.826836 3.7966127 66.72243
40.395447 3.7179818 69.951065
40.725132 3.5072455 79.156746
40.146152 3.5057259 80.24678
40.560497 4.642555 66.52652
40.31023 4.322526 69.58351
40.65252 4.0476375 69.84712
40.391205 4.6054134 77.62256
40.73407 5.631799 66.117676
40.507034 5.241323 66.48091
40.457855 5.5809875 68.15564
40.504566 4.9044886 69.195564
40.635242 5.718681 77.20336
40.223145 5.696023 82.015656
41.081158 6.245915 65.935646
40.758347 6.410835 66.59547
40.69296 6.4248343 67.716995
40.785095 6.1708527 68.31544
41.10186 6.1312795 68.85496
40.351635 6.7682257 77.21942
40.187428 6.1328845 82.18405
41.103146 6.901021 66.5957
40.78148 6.7430243 67.29393
41.28274 6.8461633 68.17289
40.345924 7.2553396 77.25538
40.56444 8.4631195 77.58667
40.21294 8.236817 81.25539
40.489174 7.8263426 81.5952
41.384792 10.005137 71.87946
41.329563 9.9414425 72.53205
41.430656 10.013343 73.44861
40.525307 9.001804 78.170204
40.74369 9.232219 78.49357
40.518112 9.104762 79.43542
40.31776 8.895576 80.18474
40.101658 8.571256 80.787964
41.38567 10.456585 71.78885
41.28035 10.397091 72.396545
41.38823 10.482017 73.087944
41.384132 10.883118 71.85499
41.351315 11.002577 72.405716
41.728107 -6.8160286 80.904
41.646633 -6.958788 81.53727
41.659878 -6.8853135 82.22935
42.25951 -6.826077 83.09369
42.2495 -5.8994346 66.69302
42.283558 -6.304163 67.609795
42.412617 -6.424809 68.57068
42.44865 -6.2789626 69.22398
41.785748 -6.200898 80.2318
41.429035 -6.451232 80.639885
41.835835 -6.1970706 83.268
42.17569 -5.161341 66.2065
41.882523 -4.9491296 66.76142
41.846313 -5.2091136 67.46348
42.284676 -5.744621 69.0073
41.729713 -5.3165936 79.626595
41.22449 -5.451075 83.56578
42.046688 -5.6576715 84.2827
41.935062 -5.078566 85.10228
41.360054 -4.914595 87.12728
40.996887 -4.705349 87.81079
41.50841 -3.9643893 65.791985
41.624435 -4.528358 66.694534
41.533234 -4.3903418 67.627785
41.853325 -4.4665394 68.26715
[...]
POINT_DATA 7229
SCALARS features_00 float 1
LOOKUP_TABLE default
0.80182564 0.8666148 0.561557 0.6759342 0.74030906 0.7588729 0.499896 0.49290502 0.45648062 0.5448101 0.6347945 0.7254885 0.78069717 0.77488923 0.48794246 0.473423 0.43511266 0.35969716 0.40831885 0.5804424 0.6724287 0.757586 0.7716428 0.37077713 0.39628214 0.50516933 0.56481934 0.67211115 0.8204638 0.8594134 0.6465145 0.7798047 0.88858736 0.9471338 0.530095 0.62566686 0.7645051 0.8998454 0.95988286 0.59950525 0.7617742 0.8713133 0.91683185 0.5931364 0.6465055 0.7820036 0.852492 0.32568973 0.2561044 0.6806127 0.7200395 0.45984963 0.44813246 0.40332758 0.37642056 0.5083064 0.63529474 0.69246113 0.75178075 0.76700294 0.47790724 0.48928916 0.49754524 0.49370444 0.4274992 0.7728609 0.76993126 0.46707663 0.48233882 0.4817297 0.401761 0.75734925 0.75918496 0.47594357 0.47903198 0.45915163 0.4453014 0.39197326 0.36344233 0.37986124 0.4683631 0.5250212 0.64581513 0.6970345 0.37590256 0.3564723 0.37302244 0.40848434 0.4649467 0.53513324 0.6271783 0.788005 0.8631435 0.8945731 0.4816466 0.54429424 0.94024336 0.4194327 0.91421515 0.86021054 0.3930839 0.5255991 0.5478877 0.84316504 0.82048357 0.5524867 0.62095195 0.72209203 0.7929367 0.49416596 0.5193207 0.5625 0.65216666 0.31309944 0.31828558 0.2861441 0.2844383 0.23162964 0.3881351 0.5485408 0.62649727 0.71219087 0.4560429 0.39936712 0.36728644 0.7368337 0.7762073 0.492626 0.479444 0.4667992 0.78402466 0.4736867 0.46669102 0.751822 0.44107234 0.4409051 0.4620785 0.47209176 0.6054376 0.43584308 0.42283696 0.4682842 0.37064838 0.26706034 0.28339744 0.32680196 0.3655337 0.3744858 0.4272226 0.43550247 0.4284916 0.32292697 0.543463 0.5955872 0.5833317 0.68729657 0.71381265 0.67187226 0.5372005 0.67629963 0.7009189 0.6781889 0.49251848 0.76630205 0.8430567 0.47011095 0.60136175 0.6075883 0.61733 0.6397226 0.42586327 0.82323015 0.54106075 0.5468294 0.5403255 0.3621498 0.7147825 0.7740418 0.5549507 0.5468719 0.3219034 0.73761725 0.7656056 0.41243923 0.6727553 0.42715782 0.48976508 0.507569 0.55285263 0.57832265 0.50410914 0.5306305 0.4337287 0.30995995 0.36236286 0.379474 0.39372975 0.24521244 0.30739024 0.17370078 0.36700723 0.54433894 0.6246257 0.7236851 0.4406554 0.39639562 0.3571527 0.44626558 0.3444961 0.78050333 0.45646542 0.46012878 0.4676769 0.43240893 0.38569373 0.37528473 0.49299136 0.47395825 0.7840072 0.77645725 0.4507811 0.47222066 0.501595 0.46205986 0.42055643 0.38332662 0.48795658 0.72938776 0.44266444 0.4497526 0.44388187 0.43867832 0.38006228 0.3217514 0.43915913 0.4615008 0.4645336 0.5640334 0.65643704 0.45982212 0.41161257 0.2920164 0.23634312 0.43890762 0.43634266 0.24340707 0.15656629 0.21563925 0.33645302 0.31697315 0.44737935 0.36950332 0.24637793 0.23483062 0.18788326 0.36839205 0.45293474 0.44059646 0.42654756 0.38172364 0.25592282 0.19097334 0.36736026 0.20131189 0.26564926 0.44883037 0.52313465 0.482732 0.3564179 0.36078298 0.28921977 0.17869222 0.6083363 0.6355401 0.29554504 0.36546195 0.6237836 0.7313879 0.82598144 0.46688896 0.5867234 0.5631874 0.31996405 0.51564956 0.51498944 0.5226126 0.54244107 0.21370576 0.5264015 0.5358614 0.555774 0.5305575 0.5011417 0.4804467 0.2397953 0.58326876 0.5486299 0.5491113 0.5022938 0.25888163 0.3606165 0.54691195 0.537964 0.72372913 0.6898687 0.6021217 0.4540325 0.45860445 0.4904621 0.5109807 0.53694665 0.7462015 0.72701603 0.679152 0.751979 0.7403439 0.4326445 0.45208848 0.4059278 0.2845996 0.4334135 0.42588535 0.41033334 0.37846363 0.35131764 0.3950531 0.23481332 0.4120326 0.40022317 0.36578196 0.3491239 0.20300543 0.16549796 0.09095311 0.021440417 0.56846964 0.71368504 0.43453568 0.401672 0.35329792 0.30760175 0.27849317 0.42739838 0.3551371 0.2874112 0.7707153 0.43585074 0.44326168 0.3411805 0.35215217 0.31982985 0.4863655 0.39657134 0.7349679 0.75299823 0.4232843 0.43993717 0.29914334 0.45354092 0.67831755 0.43603414 0.44711712 0.28851083 0.2209085 0.51310784 0.6229303 0.4693442 0.46462804 0.08768317 0.46180493 0.09917064 0.25190848 0.26993638 0.4086941 0.47677886 0.16551055 0.04041574 0.48954815 0.48346466 -0.059991345 0.46374625 0.41706103 0.33124492 0.37021795 0.35831606 0.24213496 0.49044564 0.19985956 0.19056512 -0.10488711 0.29757887 0.105342165 0.054720737 0.37175882 0.3860179 -0.061362006 0.024857864 0.47078353 0.4612456 0.04704568 0.48194534 0.52581614 0.44255495 -0.03136371 0.37611324 0.48881763 0.51082003 0.52946174 0.4841426 0.47043753 0.33430845 0.006810531 0.07650028 0.49427152 0.4869786 0.49953038 0.47939238 0.6005716 0.56296337 0.44425702 0.17490387 0.17446198 0.5049929 0.7095392 0.7112004 0.63948417 0.5470288 0.37909684 0.07605593 0.07579169 0.2746362 0.4209454 0.3757789 0.4623748 0.47713885 0.73820496 0.74788386 0.6385028 0.4963978 0.7355825 0.7482451 0.7403423 0.6753741 0.52764297 0.39305642 0.7251122 0.71988577 0.5889252 0.4598785 0.48276502 0.47937775 0.4527173 0.4386096 0.40558583 0.4347328 0.38502452 0.28150243 0.22529952 0.46469808 0.45886812 0.45286927 0.43562782 0.37904143 0.34307602 0.309806 0.18525605 0.42240936 0.30945823 0.27315795 0.05489585 0.22582744 0.0714502 0.39340085 0.5671026 0.40884334 0.20594004 0.27629066 0.37835968 0.1859104 0.30307174 0.67898136 0.38194346 0.41010422 0.22230123 0.5678954 0.62586653 0.42674938 0.07937484 0.41259405 0.49181545 0.4681699 0.46855232 0.027211837 0.12823921 0.47669896 0.22978799 0.29422015 0.46907437 0.46138728 0.15754223 0.17453706 0.4818189 0.114865705 0.14407119 0.23096812 0.37837923 0.45371893 0.42658392 0.37402013 0.27493298 0.3514904 0.3922568 0.3438607 0.10954855 0.29908264 0.32184535 0.050299913 0.0910461 0.32412225 0.14548178 0.01603289 -0.042406194 0.36702046 0.16691186 0.2366789 0.015668526 0.0074564144 0.20511138 0.27727014 0.4235835 -0.084828734 0.37743187 0.42972124 0.38992488 0.42241025 0.26203918 0.18972868 -0.0045884177 0.4835108 0.4243768 0.43811685 0.41935 0.40469846 0.30922687 0.53170615 0.47581422 0.69800603 0.4445144 0.34767544 0.08586405 0.11480368 0.19517194 0.41176313 0.41870725 0.33540118 0.46280298 0.7194985 0.6921635 0.15088746 0.4322946 0.51887584 0.59963423 0.5877139 0.6792358 0.64162326 0.4992357 0.4113337 0.34071332 0.47948617 0.57892674 0.7179563 0.71570253 0.7036382 0.54032457 0.6920371 0.77401054 0.81470174 0.8040986 0.72967625 0.8078575 0.83746225 0.59085476 0.60859126 0.6004541 0.542528 0.63001376 0.657102 0.629736 0.585094 0.55332047 0.6206713 0.64719 0.58634746 0.48187503 0.481101 0.5020666 0.5294087 0.36489174 0.4048071 0.34942365 0.34545323 0.3904435 0.42231086 0.4143461 0.37427664 0.43294412 0.38151133 0.4298281 0.4025137 0.36990458 0.32269037 0.30695134 0.48451865 0.482436 0.3855741 0.37976164 0.33692282 0.3460221 0.35768592 0.29705742 0.2725444 0.28000098 0.47274882 0.30045757 0.32512635 0.4302997 0.061317183 0.21053825 0.05940054 0.4192156 0.6010794 0.20786445 0.07584372 0.028968956 0.14409594 -0.092783965 0.59007967 0.32062304 0.066877484 -0.040019825 0.10762806 0.55428505 0.44462806 0.3959439 0.071615785 0.33356598 0.26551625 0.42595774 0.4625122 0.11966869 0.14087316 0.16986741 0.38272697 0.16216557 0.4535805 0.45526695 0.18495962 0.21114168 0.42911017 0.39368218 0.19193192 -0.14293286 0.15749687 0.32343853 -0.04566648 0.0663343 0.07771688 0.28021663 0.3146196 0.39028385 0.002011165 0.11313385 -0.21620826 -0.1422835 0.0028980672 0.18634857 0.22741467 0.29868445 0.38038814 -0.17617887 -0.04721554 -0.021098979 -0.11867599 0.011949471 0.22969994 0.24014103 -0.074849695 -0.029023603 0.2974629 -0.25305682 0.23730001 0.31599453 0.35419568 0.19423342 -0.028000431 0.07764103 0.4460348 0.35348803 0.18932228 0.03449212 0.21966597 0.2869974 0.26109862 0.2264818 0.17581487 0.33702832 0.30169064 0.21450901 0.26855862 0.32105377 0.40172157 0.33128035 0.30372006 0.23933995 0.23697561 0.6094513 0.07544295 -0.0040411428 0.12695314 0.41396716 0.41568705 0.3111246 0.54079086 0.077504076 0.38463038 0.44069356 0.5742402 0.49460816 0.32909456 0.35098037 0.18616165 0.11907084 0.4307262 0.4780252 0.6307068 0.32214534 0.4498049 0.6002524 0.773008 0.63542414 0.71519196 0.78802884 0.80400634 0.7918114 0.7702323 0.7834879 0.56808025 0.5740746 0.5420785 0.52888906 0.50035954 0.4292767 0.46062416 0.47054648 0.49159563 0.43434015 0.4106992 0.44309723 0.5300096 0.54669195 0.5378725 0.5423642 0.55638075 0.41150472 0.28130582 0.4911164 0.5733347 0.5665878 0.21478137 0.26457542 0.43540764 0.5292612 0.21767801 0.25014603 0.35664517 0.37250763 0.24178219 0.29752803 0.20206484 0.31632584 0.30203778 0.24660291 0.30985698 0.3439704 0.29751718 0.333522 0.28912517 0.3014031 0.33351636 0.40440404 0.4502415 0.37770697 0.32241815 0.25546312 0.23924251 0.22102349 0.37770852 0.41005644 0.41586098 0.12010791 0.1994516 0.3887758 0.0004970338 0.009453939 -0.04183913 -0.024414822 -0.1999153 0.25944594 0.2890157 0.21743913 -0.09901382 -0.43689302 0.40522683 -0.0016795788 0.4469236 0.1000602 0.10359321 0.40833622 0.11143152 -0.021909073 0.3965392 0.32616264 0.04576592 0.23254997 0.3113907 0.05419925 -0.12755026 0.39527893 0.34911287 -0.084894836 -0.48197496 -0.026222397 0.14771672 0.17535985 0.049078286 -0.4137118 -0.45253444 -0.29969954 -0.2460495 0.08654557 0.13017254 0.18688539 0.19819337 -0.5344574 -0.4641062 -0.19831659 0.13628827 0.25205895 -0.35242844 -0.5059231 -0.5320302 -0.2928298 0.21633378 0.06028929 0.28122693 0.30594864 -0.3571647 -0.32707176 0.22955544 0.07910971 0.089702256 0.11862017 0.15325409 0.17352553 0.27497265 0.31728488 0.17008096 0.18125547 0.16866323 0.16613688 0.16888857 0.19557811 0.38334647 0.32688802 0.31770587 0.16686936 0.1789648 0.3061486 0.43967623 0.29947436 0.2657352 0.23874243 0.18834049 0.10404529 0.023740947 0.24329937 0.3087923 0.4630335 0.15861253 0.02619667 0.08822714 0.3003866 0.3549802 0.100403234 0.15194589 0.14970785 0.21351825 0.61833584 0.29400665 0.07159871 0.16841829 0.4324558 0.7330024 0.6946468 0.57587606 0.6633793 0.7519559 0.7445511 0.673955 0.73020625 0.7491971 0.5936361 0.5303146 0.48842278 0.6180396 0.6251699 0.6147866 0.5601566 0.5166255 0.2958069 0.5968246 0.6026012 0.42885196 0.38146386 0.40020397 0.47179085 0.48873824 0.5476507 0.5245518 0.2860334 0.49070877 0.53284687 0.47210783 0.44019708 0.56319946 0.4455758 0.4103353 0.3234024 0.20149548 0.01985857 0.4136489 0.50779283 0.34877467 0.27830765 0.17812735 0.095977046 -0.029648177 0.22028802 0.38169742 0.2617589 0.23784384 0.21736485 0.12370894 0.046822764 0.11689521 0.16399597 0.0891944 0.18365696 0.027862355 0.027797006 -0.010747485 0.18486136 -0.081819706 -0.111354515 0.14230321 0.27425295 0.35393387 0.41978312 0.4843911 0.5420892 0.45396087 0.3504402 0.1883518 0.15244669 0.18746448 0.12683661 -0.00042786822 0.10556048 0.18241669 0.16806126 0.44741064 0.540607 0.47396582 -0.1085259 -0.035364173 -0.0876104 0.027893096 0.55952954 0.49412885 0.41175014 -0.38958853 -0.26585394 0.050930344 0.08576454 -0.44317335 -0.18414384 -0.11851086 -0.0884971 -0.12597844 0.07827503 0.33818388 -0.32253358 -0.27514243 -0.1558449 -0.09275724 -0.08874339 -0.15896428 -0.3316367 0.08030538 -0.21575764 -0.086953 -0.15457074 0.27077296 -0.072431095 -0.4038929 -0.20712638 0.39891392 0.32326612 0.35660082 0.2735138 -0.044628 0.23647608 0.13885804 0.1209234 -0.0065751728 0.23501843 -0.230328 -0.5851531 0.029397026 0.03201162 -0.005871542 0.13939609 -0.57016397 -0.5944611 0.07686738 0.025205024 -0.01699122 0.21433122 -0.5778469 -0.5451411 -0.56304455 0.16304684 0.058413178 0.057517808 0.03585632 0.040008638 0.09902594 0.24099588 0.058441482 0.049055718 0.13514832 0.17204408 0.30255023 0.42371053 0.3899756 0.5069601 0.5692428 0.24562524 0.5718755 0.5908159 0.28663814 0.24798997 0.2123667 0.086940825 0.29901496 0.52971566 0.5762842 0.5925077 0.19980785 0.17544946 0.13586678 -0.0043975525 -0.03868605 0.1939554 0.18366961 0.37549412 0.36729047 0.521427 -0.06628495 0.28732386 0.25318655 0.43565112 0.44461152 0.37805948 0.16446978 0.17374724 0.11931345 0.19082546 0.25956532 0.28968775 0.4576267 0.46693575 0.45871404 0.61608785 0.2815997 0.39649585 0.33366188 0.4316117 0.56077385 0.6478088 0.69569534 0.59198034 0.63280344 0.7070401 0.5887202 0.58553857 0.53317195 0.48713678 0.3904259 0.6063813 0.59945285 0.39485317 0.20941876 0.16401516 0.2636679 0.6027842 0.6096443 0.33140406 0.31117344 0.4305781 0.5583908 0.5067398 0.50235695 0.48488098 0.46353093 0.44617802 0.43036813 0.36948964 0.24711189 0.2827504 0.038923193 -0.06894207 0.052458048 0.0050040022 0.4436011 0.31684655 0.023025602 0.024600564 0.005189998 0.50834775 0.44967097 0.31188416 0.03353453 -0.00840804 -0.040437773 -0.052037116 0.098743856 0.24330434 0.2797215 0.4500391 0.51906097 0.63779044 0.69552535 0.5374043 0.4877839 0.0067473054 0.012426831 -0.036042113 -0.24044822 -0.0609347 0.6235259 0.7084643 0.5836685 0.55460036 -0.10026552 -0.057243705 0.7717222 0.57361555 0.5303624 -0.21171607 0.7203896 0.45221058 0.35012528 0.1851727 0.39200974 0.11613493 -0.09419978 0.08485241 0.2756016 0.18604904 0.29026487 0.13928859 0.39903355 0.20758684 0.093045935 0.22351223 0.42902285 0.11384939 0.0048362436 0.23349753 0.2901512 -0.021344757 -0.013341501 0.049179986 0.19961804 -0.06563248 0.06105133 -0.044258133 -0.09627217 0.57616943 0.59947044 0.31808037 -0.116004795 0.1297386 0.42679632 0.53033566 0.5824024 0.21122073 0.362459 0.4975468 0.1166676 0.06081345 0.57302946 0.14583087 0.19120345 0.5965131 0.22342524 0.26779336 0.5887411 0.24186185 0.21018878 0.5764596 0.5691967 0.15779199 0.08202232 -0.14626259 -0.061197273 0.064694375 0.38152564 0.21546361 0.12135528 0.2488307 0.27273828 0.48021427 0.27914494 0.3417099 0.28217572 0.15939938 0.4680879 0.45386556 0.30433762 0.37731302 0.491416 0.48375505 0.51141554 0.51469713 0.45199704 0.32619777 0.41923338 0.62021327 0.59386504 0.53778064 0.65643847 0.5444716 0.49451405 0.34887043 0.40302098 0.3069651 0.052577738 0.5572468 0.15182427 0.5475588 0.23309188 0.24446782 0.29729006 0.50264806 0.37883466 0.5549723 0.47867578 0.2675153 0.45006993 0.3040808 0.06796476 0.5143187 0.4414319 0.30785623 -0.027515823 -0.04826608 0.011077793 0.21782584 0.58398587 -0.04767741 -0.03491006 0.088774845 0.070378155 0.07892379 0.3565905 0.547162 0.6697035 0.7319292 0.77584624 0.6443902 0.60682076 0.81195676 0.62873757 0.89013547 0.55388486 0.79206634 0.4964611 0.39622107 0.4459666 0.58493924 0.2176347 0.21018171 0.3368674 -0.12902157 0.35667515 0.40885833 -0.08579038 0.4335267 0.07734683 0.45746875 -0.115571946 0.3595056 0.17271969 -0.023549259 0.45455256 0.41147423 0.26914936 0.15619493 0.5424396 0.5912367 0.46514115 -0.15043491 0.21456537 0.600873 0.55594623 0.43500432 0.5714768 0.3488739 0.5134659 0.0022858232 0.6903554 -0.074543595 0.76648355 0.6851677 0.5535342 0.43125406 -0.23547672 -0.0864867 0.5507063 0.89076483 0.8438486 0.7483214 0.5824282 0.51196784 0.20009953 0.55496705 0.9080144 0.8871147 0.8026217 0.22532974 0.2136136 0.48705298 0.5519873 0.87141657 0.24740484 0.23121533 0.21113588 0.0938887 -0.07128593 0.090206146 0.24057235 0.16758922 0.13165975 0.17915855 0.44157174 0.45280516 0.02717951 -0.018128198 0.3467855 0.28807083 0.1972343 0.11345061 0.43176895 0.41107577 0.26031768 0.07018735 0.09083079 0.2333918 0.29316464 0.46167427 0.53053117 0.27072212 0.5184682 0.6207696 0.6490712 0.590114 0.47614664 0.36043036 0.6630776 0.6854458 0.6403737 0.5931631 0.2776089 0.2903359 0.24902493 0.11049977 0.16077405 0.19172183 0.15375869 0.47216168 0.33202296 0.12161294 0.10263935 0.41958725 0.4168535 -0.074621275 0.013511684 0.44837353 0.45133117 0.085473895 0.21756485 0.3032725 0.44186485 0.2570743 0.48668426 0.21260148 0.43044424 0.10149547 0.2262368 -0.07533568 -0.08125258 -0.016307205 -0.06896949 -0.12394382 0.19456446 0.2668742 0.5685286 0.4474886 0.1030882 0.11909137 0.2031374 0.3147596 0.63683844 0.6256118 0.22041091 0.18283293 0.65411675 0.7413028 0.8020276 0.81733227 0.62157655 0.8289237 0.8560547 0.60495675 0.89706147 0.5259758 0.8106046 0.44201466 0.35669434 0.6866553 0.77029943 0.14679615 0.29470205 -0.13227162 -0.10964105 0.362368 -0.17513074 -0.17515093 0.4080118 0.43064058 0.42829755 0.43193898 0.47556123 0.20849225 0.13163082 0.4131448 0.4311436 0.39962804 0.50666374 0.45412585 0.46538103 0.45784348 0.51495475 0.49652347 0.4547544 0.45109558 0.48996568 0.4765915 0.3386675 0.49528134 0.40044254 0.671562 0.649025 0.61678314 0.38396674 0.8072362 0.74982905 0.38548574 0.8898809 0.4238726 0.21651158 -0.13777785 0.48935705 0.9367106 0.9103762 0.7588752 0.59302145 0.44647336 0.19699447 0.3572393 0.93061423 0.87893516 0.79468375 0.6367715 0.26379493 0.24859467 0.22341989 0.16054419 0.2141485 0.009288872 0.058310255 -0.009045541 -0.026691437 0.3096484 0.3559746 0.0023941025 0.11302178 0.1936048 0.05721148 0.35046217 0.3513481 0.24386507 0.037440494 0.11792627 0.2061142 0.42177862 0.23591799 0.5513716 0.5997567 0.4993103 0.34367624 0.663167 0.6689466 0.62452704 0.5327765 0.6398865 0.6120766 0.5224116 0.4040103 0.36078906 0.3381211 0.299878 0.27349436 0.3505247 0.31794992 0.30192295 0.29539987 0.25118145 0.25221965 0.08621326 0.024275899 -0.020036351 -0.049263418 0.32179004 0.33857048 -0.06563726 0.06217096 0.3958615 0.38593012 0.07593412 0.13178304 0.3332576 0.40993726 0.3037397 0.3077558 0.40105528 0.14120464 0.14600426 0.30938143 0.007979292 0.10703708 -0.099324696 -0.1045986 -0.022290833 -0.13542134 -0.121166356 0.1655639 0.26970434 -0.12489152 -0.09914146 -0.16925885 0.1822891 0.24220645 0.49638802 0.19050822 0.45838976 0.59374803 0.5928924 0.5067729 0.63407576 0.7601813 0.7991142 0.56953645 0.5230351 0.18522176 0.6076752 0.74068445 0.81058383 0.8427933 0.50951254 0.4517361 0.4231556 0.79647076 0.849702 0.4525506 0.37372547 -0.056863632 0.2691274 0.582665 0.7549254 0.83377194 0.32082617 -0.44763798 -0.1888448 0.12392563 0.31818974 0.69615245 0.04250618 -0.081385896 0.013731152 0.22697455 0.34074584 0.326534 0.38670453 -0.121434025 0.40550935 -0.14729223 0.37195683 0.3528175 0.30989987 0.28044888 0.404119 0.354423 0.18237014 0.35972452 0.42638454 0.41278255 0.40653217 0.39968324 0.4306227 0.4448294 0.19514696 0.27433324 0.48848706 0.431234 0.43953452 0.59566206 0.5699002 0.2463179 0.3337742 0.74059176 0.89621264 0.320277 0.9799515 0.4465505 0.35778052 0.049127627 0.93414474 0.83560586 0.6989844 0.5941274 0.43068904 0.29187927 0.2704399 0.12939113 -0.20773308 -0.31255034 0.1772581 0.018454093 0.011537513 0.76271677 0.70831156 0.6357498 0.097262196 -0.1264528 0.2372325 0.2648263 0.14274892 0.2904179 0.30712375 0.20510255 0.24866669 0.21561645 0.31689903 0.5006139 0.30739808 0.62592673 0.56392705 0.5499518 0.5402873 0.5582534 0.45174858 0.7374676 0.6824094 0.5712995 0.4732873 0.32718375 0.7102896 0.60577625 0.3568148 0.32512388 0.26230624 0.69490206 0.64507926 0.10610526 0.38984627 -0.011020092 0.19037846 -0.15839998 0.25927195 0.24044459 -0.28128684 -0.38503695 0.28381714 0.3188624 0.25651306 0.24089411 0.23594919 -0.052130505 0.10964567 -0.006111983 -0.10952502 -0.22763903 -0.19301294 -0.02140026 0.16234486 0.255508 0.41334772 0.4931409 -0.23633839 -0.016163256 0.5127232 0.27060324 -0.17337804 0.5286087 0.55254674 0.52570754 0.44581792 0.47368017 0.47467083 0.17800035 0.71165633 0.763474 0.405661 0.04432754 -0.23413381 0.46558177 0.7364794 0.13745643 -0.35678527 0.34052393 0.66973007 -0.07862551 -0.0373744 -0.40017897 0.10691631 -0.15554842 -0.18020725 0.3199714 0.22686774 -0.20243408 0.02085891 0.13726872 0.385814 0.16383907 0.21263552 0.2794388 0.24587032 0.30516982 0.29592526 0.2679613 0.034169428 0.21533677 0.18112458 0.16090687 0.05368422 0.30219328 -0.006070733 0.31526592 0.29039913 0.35533616 0.3514345 0.41668266 0.06627887 0.46692184 0.21560968 0.4700945 0.5450104 0.4280433 0.39133677 0.6149427 0.1315292 0.75907147 0.8613553 0.2618517 0.08560247 0.0801583 0.041542884 0.84128803 0.7707373 0.57116354 0.47351924 0.3036778 -0.3827527 -0.13299757 0.024745118 0.73392946 0.685125 0.5987467 0.06262117 -0.26228455 0.12097968 0.20092788 0.2023831 0.2694222 0.2663877 0.16398084 0.19720235 0.20577367 0.2735014 0.408472 0.5258218 0.48231408 0.4472243 0.47816938 0.5703572 0.42296648 0.56086904 0.5729418 0.56838095 0.512112 0.5420689 0.55089206 0.549446 0.7797736 0.7548259 0.66800976 0.43360037 0.22530626 0.42353666 0.45494625 0.52230